
#(C) 2019 by FIZ Karlsruhe - Leibniz Institute for Information Infrastructure.  All rights reserved.
data_100785-ICSD
_database_code_ICSD 100785
_audit_creation_date 1980-12-31
_audit_update_record 2018-08-01
_chemical_name_systematic 'Lanthanum triruthenium disilicide'
_chemical_formula_structural 'La Ru3 Si2'
_chemical_formula_sum 'La1 Ru3 Si2'
_chemical_name_structure_type LaRu3Si2
_exptl_crystal_density_diffrn 8.33
_publ_section_title

;
The crystal structure of a new ternary silicide in the system
rare-earth-ruthenium-silicon
;
loop_
_citation_id
_citation_journal_full
_citation_year
_citation_journal_volume
_citation_page_first
_citation_page_last
_citation_journal_id_ASTM
primary 'Materials Research Bulletin' 1980 15 1493 1498 MRBUAC
loop_
_publ_author_name
'Vandenberg, J.M.'
'Barz, H.'
_cell_length_a 5.676(1)
_cell_length_b 5.676(1)
_cell_length_c 7.120(1)
_cell_angle_alpha 90.
_cell_angle_beta 90.
_cell_angle_gamma 120.
_cell_volume 198.65
_cell_formula_units_Z 2
_symmetry_space_group_name_H-M 'P 63/m'
_symmetry_Int_Tables_number 176
loop_
_symmetry_equiv_pos_site_id
_symmetry_equiv_pos_as_xyz
1 '-x+y, -x, -z+1/2'
2 '-y, x-y, -z+1/2'
3 'x, y, -z+1/2'
4 'x-y, x, -z'
5 'y, -x+y, -z'
6 '-x, -y, -z'
7 'x-y, x, z+1/2'
8 'y, -x+y, z+1/2'
9 '-x, -y, z+1/2'
10 '-x+y, -x, z'
11 '-y, x-y, z'
12 'x, y, z'
loop_
_atom_type_symbol
_atom_type_oxidation_number
La0+ 0
Ru0+ 0
Si0+ 0
loop_
_atom_site_label
_atom_site_type_symbol
_atom_site_symmetry_multiplicity
_atom_site_Wyckoff_symbol
_atom_site_fract_x
_atom_site_fract_y
_atom_site_fract_z
_atom_site_B_iso_or_equiv
_atom_site_occupancy
_atom_site_attached_hydrogens
La1 La0+ 2 b 0 0 0 . 1. 0
Ru1 Ru0+ 6 h 0.48 -.01 0.25 . 1. 0
Si1 Si0+ 4 f 0.3333 0.6667 0 . 1. 0
#End of TTdata_100785-ICSD