
#(C) 2019 by FIZ Karlsruhe - Leibniz Institute for Information Infrastructure.  All rights reserved.
data_103677-ICSD
_database_code_ICSD 103677
_audit_creation_date 2004-10-01
_chemical_name_systematic 'Iron uranium (1/6)'
_chemical_formula_structural 'Fe U6'
_chemical_formula_sum 'Fe1 U6'
_chemical_name_structure_type MnU6
_exptl_crystal_density_diffrn 17.84
_cell_measurement_temperature 100.
_publ_section_title

;
Phonon anomalies and local atomic displacements in the exchange-enhanced
superconductor U6 Fe
;
loop_
_citation_id
_citation_journal_full
_citation_year
_citation_journal_volume
_citation_page_first
_citation_page_last
_citation_journal_id_ASTM
primary 'Physical Review B: Condensed Matter and Materials Physics' 1985 32 4419
4425 PRBMDO
loop_
_publ_author_name
'Kimball, C.W.'
'Vaishnava, P.P.'
'Dwight, A.E.'
_cell_length_a 10.2625(1)
_cell_length_b 10.2625
_cell_length_c 5.2458(1)
_cell_angle_alpha 90.
_cell_angle_beta 90.
_cell_angle_gamma 90.
_cell_volume 552.48
_cell_formula_units_Z 4
_symmetry_space_group_name_H-M 'I 4/m c m'
_symmetry_Int_Tables_number 140
_refine_ls_R_factor_all 0.055
loop_
_symmetry_equiv_pos_site_id
_symmetry_equiv_pos_as_xyz
1 'y, x, -z+1/2'
2 '-y, -x, -z+1/2'
3 '-y, x, -z'
4 'y, -x, -z'
5 'x, -y, -z+1/2'
6 '-x, y, -z+1/2'
7 'x, y, -z'
8 '-x, -y, -z'
9 '-y, -x, z+1/2'
10 'y, x, z+1/2'
11 'y, -x, z'
12 '-y, x, z'
13 '-x, y, z+1/2'
14 'x, -y, z+1/2'
15 '-x, -y, z'
16 'x, y, z'
17 'y+1/2, x+1/2, -z'
18 '-y+1/2, -x+1/2, -z'
19 '-y+1/2, x+1/2, -z+1/2'
20 'y+1/2, -x+1/2, -z+1/2'
21 'x+1/2, -y+1/2, -z'
22 '-x+1/2, y+1/2, -z'
23 'x+1/2, y+1/2, -z+1/2'
24 '-x+1/2, -y+1/2, -z+1/2'
25 '-y+1/2, -x+1/2, z'
26 'y+1/2, x+1/2, z'
27 'y+1/2, -x+1/2, z+1/2'
28 '-y+1/2, x+1/2, z+1/2'
29 '-x+1/2, y+1/2, z'
30 'x+1/2, -y+1/2, z'
31 '-x+1/2, -y+1/2, z+1/2'
32 'x+1/2, y+1/2, z+1/2'
loop_
_atom_type_symbol
_atom_type_oxidation_number
Fe0+ 0
U0+ 0
loop_
_atom_site_label
_atom_site_type_symbol
_atom_site_symmetry_multiplicity
_atom_site_Wyckoff_symbol
_atom_site_fract_x
_atom_site_fract_y
_atom_site_fract_z
_atom_site_B_iso_or_equiv
_atom_site_occupancy
_atom_site_attached_hydrogens
Fe1 Fe0+ 4 a 0 0 0.25 . 1. 0
U1 U0+ 8 h 0.4056(1) 0.9056 0 . 1. 0
U2 U0+ 16 k 0.2145(1) 0.1029(1) 0 . 1. 0
loop_
_atom_site_aniso_label
_atom_site_aniso_type_symbol
_atom_site_aniso_beta_11
_atom_site_aniso_beta_22
_atom_site_aniso_beta_33
_atom_site_aniso_beta_12
_atom_site_aniso_beta_13
_atom_site_aniso_beta_23
Fe1 Fe0+ 0.0010(1) 0.001 0.0008(4) 0 0 0
U1 U0+ 0.0010(1) 0.001 0.0006(3) -.0006(1) 0 0
U2 U0+ 0.0009(1) 0.0008(1) 0.0046(3) -.00022(6) 0 0
#End of TTdata_103677-ICSD