
#(C) 2019 by FIZ Karlsruhe - Leibniz Institute for Information Infrastructure.  All rights reserved.
data_103766-ICSD
_database_code_ICSD 103766
_audit_creation_date 2004-10-01
_audit_update_record 2018-02-01
_chemical_name_systematic 'Gallium lanthanum (2/1)'
_chemical_formula_structural 'Ga2 La'
_chemical_formula_sum 'Ga2 La1'
_chemical_name_structure_type AlB2
_exptl_crystal_density_diffrn 6.5
_publ_section_title 'Phase diagrams of rare earth metals with gallium'
loop_
_citation_id
_citation_journal_full
_citation_year
_citation_journal_volume
_citation_page_first
_citation_page_last
_citation_journal_id_ASTM
primary 'Journal of the Less-Common Metals' 1979 64 185 199 JCOMAH
loop_
_publ_author_name
'Yatsenko, S.P.'
'Semyannikov, A.A.'
'Semenov, B.G.'
'Chuntonov, K.A.'
_cell_length_a 4.313
_cell_length_b 4.313
_cell_length_c 4.415
_cell_angle_alpha 90.
_cell_angle_beta 90.
_cell_angle_gamma 120.
_cell_volume 71.12
_cell_formula_units_Z 1
_symmetry_space_group_name_H-M 'P 6/m m m'
_symmetry_Int_Tables_number 191
loop_
_symmetry_equiv_pos_site_id
_symmetry_equiv_pos_as_xyz
1 '-x, -x+y, -z'
2 'x-y, -y, -z'
3 'y, x, -z'
4 '-x+y, -x, -z'
5 '-y, x-y, -z'
6 'x, y, -z'
7 'x, x-y, -z'
8 '-x+y, y, -z'
9 '-y, -x, -z'
10 'x-y, x, -z'
11 'y, -x+y, -z'
12 '-x, -y, -z'
13 'x, x-y, z'
14 '-x+y, y, z'
15 '-y, -x, z'
16 'x-y, x, z'
17 'y, -x+y, z'
18 '-x, -y, z'
19 '-x, -x+y, z'
20 'x-y, -y, z'
21 'y, x, z'
22 '-x+y, -x, z'
23 '-y, x-y, z'
24 'x, y, z'
loop_
_atom_type_symbol
_atom_type_oxidation_number
Ga0+ 0
La0+ 0
loop_
_atom_site_label
_atom_site_type_symbol
_atom_site_symmetry_multiplicity
_atom_site_Wyckoff_symbol
_atom_site_fract_x
_atom_site_fract_y
_atom_site_fract_z
_atom_site_B_iso_or_equiv
_atom_site_occupancy
_atom_site_attached_hydrogens
Ga1 Ga0+ 2 d 0.3333 0.6667 0.5 . 1. 0
La1 La0+ 1 a 0 0 0 . 1. 0
#End of TTdata_103766-ICSD