
#(C) 2020 by FIZ Karlsruhe - Leibniz Institute for Information Infrastructure.  All rights reserved.
data_103952-ICSD
_database_code_ICSD 103952
_audit_creation_date 2004-10-01
_audit_update_record 2017-08-01
_chemical_name_common 'Gallium antimonide (1/1) - HP'
_chemical_formula_structural 'Ga Sb'
_chemical_formula_sum 'Ga1 Sb1'
_chemical_name_structure_type Sn(beta)#Sn(tI4)
_exptl_crystal_density_diffrn 7.57
_diffrn_ambient_temperature 293.
_diffrn_ambient_pressure 9000000.
_citation_title

;
Crystal structures at high pressures of metallic modifications of compounds of
indium, gallium, and aluminium
;
loop_
_citation_id
_citation_journal_full
_citation_year
_citation_journal_volume
_citation_page_first
_citation_page_last
_citation_journal_id_ASTM
primary 'Science (Washington, DC, United States)' 1963 139 845 847 SCIEAS
loop_
_citation_author_citation_id
_citation_author_name
primary 'Jamieson, John C.'
_cell_length_a 5.348
_cell_length_b 5.348
_cell_length_c 2.937
_cell_angle_alpha 90.
_cell_angle_beta 90.
_cell_angle_gamma 90.
_cell_volume 84.
_cell_formula_units_Z 2
_space_group_name_H-M_alt 'I 41/a m d S'
_space_group_IT_number 141
loop_
_space_group_symop_id
_space_group_symop_operation_xyz
1 'y, -x+1/2, z+1/4'
2 '-y, x+1/2, z+1/4'
3 'y, -x, -z'
4 '-y, x, -z'
5 '-y, -x+1/2, z+1/4'
6 'y, x+1/2, z+1/4'
7 '-y, -x, -z'
8 'y, x, -z'
9 'x, -y+1/2, -z+1/4'
10 '-x, y+1/2, -z+1/4'
11 'x, -y, z'
12 '-x, y, z'
13 '-x, -y+1/2, -z+1/4'
14 'x, y+1/2, -z+1/4'
15 '-x, -y, z'
16 'x, y, z'
17 'y+1/2, -x, z+3/4'
18 '-y+1/2, x, z+3/4'
19 'y+1/2, -x+1/2, -z+1/2'
20 '-y+1/2, x+1/2, -z+1/2'
21 '-y+1/2, -x, z+3/4'
22 'y+1/2, x, z+3/4'
23 '-y+1/2, -x+1/2, -z+1/2'
24 'y+1/2, x+1/2, -z+1/2'
25 'x+1/2, -y, -z+3/4'
26 '-x+1/2, y, -z+3/4'
27 'x+1/2, -y+1/2, z+1/2'
28 '-x+1/2, y+1/2, z+1/2'
29 '-x+1/2, -y, -z+3/4'
30 'x+1/2, y, -z+3/4'
31 '-x+1/2, -y+1/2, z+1/2'
32 'x+1/2, y+1/2, z+1/2'
loop_
_atom_type_symbol
_atom_type_oxidation_number
Ga3+ 3
Sb3- -3
loop_
_atom_site_label
_atom_site_type_symbol
_atom_site_symmetry_multiplicity
_atom_site_Wyckoff_symbol
_atom_site_fract_x
_atom_site_fract_y
_atom_site_fract_z
_atom_site_B_iso_or_equiv
_atom_site_occupancy
Ga1 Ga3+ 4 a 0 0 0 . 0.5
Sb1 Sb3- 4 a 0 0 0 . 0.5
#End of TTdata_103952-ICSD