
#(C) 2019 by FIZ Karlsruhe - Leibniz Institute for Information Infrastructure.  All rights reserved.
data_104327-ICSD
_database_code_ICSD 104327
_audit_creation_date 2004-10-01
_chemical_name_systematic 'Mercury sodium (2/1)'
_chemical_formula_structural 'Hg2 Na'
_chemical_formula_sum 'Hg2 Na1'
_chemical_name_structure_type CaHg2
_exptl_crystal_density_diffrn 9.96
_publ_section_title 'The crystal structures of Na Hg2, Na Hg and Na3 Hg2'
loop_
_citation_id
_citation_journal_full
_citation_year
_citation_journal_volume
_citation_page_first
_citation_page_last
_citation_journal_id_ASTM
primary 'Acta Crystallographica' 1954 7 277 282 ACCRA9
loop_
_publ_author_name
'Nielson, J.W.'
'Baenziger, N.C.'
_cell_length_a 5.0290(5)
_cell_length_b 5.029
_cell_length_c 3.2304(16)
_cell_angle_alpha 90.
_cell_angle_beta 90.
_cell_angle_gamma 120.
_cell_volume 70.75
_cell_formula_units_Z 1
_symmetry_space_group_name_H-M 'P 6/m m m'
_symmetry_Int_Tables_number 191
_refine_ls_R_factor_all 0.207
loop_
_symmetry_equiv_pos_site_id
_symmetry_equiv_pos_as_xyz
1 '-x, -x+y, -z'
2 'x-y, -y, -z'
3 'y, x, -z'
4 '-x+y, -x, -z'
5 '-y, x-y, -z'
6 'x, y, -z'
7 'x, x-y, -z'
8 '-x+y, y, -z'
9 '-y, -x, -z'
10 'x-y, x, -z'
11 'y, -x+y, -z'
12 '-x, -y, -z'
13 'x, x-y, z'
14 '-x+y, y, z'
15 '-y, -x, z'
16 'x-y, x, z'
17 'y, -x+y, z'
18 '-x, -y, z'
19 '-x, -x+y, z'
20 'x-y, -y, z'
21 'y, x, z'
22 '-x+y, -x, z'
23 '-y, x-y, z'
24 'x, y, z'
loop_
_atom_type_symbol
_atom_type_oxidation_number
Hg0+ 0
Na0+ 0
loop_
_atom_site_label
_atom_site_type_symbol
_atom_site_symmetry_multiplicity
_atom_site_Wyckoff_symbol
_atom_site_fract_x
_atom_site_fract_y
_atom_site_fract_z
_atom_site_B_iso_or_equiv
_atom_site_occupancy
_atom_site_attached_hydrogens
Hg1 Hg0+ 2 d 0.3333 0.6667 0.5 . 1. 0
Na1 Na0+ 1 a 0 0 0 . 1. 0
#End of TTdata_104327-ICSD