
#(C) 2019 by FIZ Karlsruhe - Leibniz Institute for Information Infrastructure.  All rights reserved.
data_105406-ICSD
_database_code_ICSD 105406
_audit_creation_date 2004-10-01
_audit_update_record 2017-08-01
_chemical_name_systematic 'Nickel thorium (3/7)'
_chemical_formula_structural 'Ni3 Th7'
_chemical_formula_sum 'Ni3 Th7'
_chemical_name_structure_type Fe3Th7
_exptl_crystal_density_diffrn 11.4
_publ_section_title

;
Compounds of thorium with transition metals. II. Systems with iron. cobalt and
nickel
;
loop_
_citation_id
_citation_journal_full
_citation_year
_citation_journal_volume
_citation_page_first
_citation_page_last
_citation_journal_id_ASTM
primary 'Acta Crystallographica' 1956 9 367 372 ACCRA9
loop_
_publ_author_name
'Florio, John V.'
'Baenziger, N.C.'
'Rundle, R.E.'
_cell_length_a 9.86
_cell_length_b 9.86
_cell_length_c 6.23
_cell_angle_alpha 90.
_cell_angle_beta 90.
_cell_angle_gamma 120.
_cell_volume 524.53
_cell_formula_units_Z 2
_symmetry_space_group_name_H-M 'P 63 m c'
_symmetry_Int_Tables_number 186
loop_
_symmetry_equiv_pos_site_id
_symmetry_equiv_pos_as_xyz
1 '-x, -x+y, z+1/2'
2 'x-y, -y, z+1/2'
3 'y, x, z+1/2'
4 'x-y, x, z+1/2'
5 'y, -x+y, z+1/2'
6 '-x, -y, z+1/2'
7 'x, x-y, z'
8 '-x+y, y, z'
9 '-y, -x, z'
10 '-x+y, -x, z'
11 '-y, x-y, z'
12 'x, y, z'
loop_
_atom_type_symbol
_atom_type_oxidation_number
Ni0+ 0
Th0+ 0
loop_
_atom_site_label
_atom_site_type_symbol
_atom_site_symmetry_multiplicity
_atom_site_Wyckoff_symbol
_atom_site_fract_x
_atom_site_fract_y
_atom_site_fract_z
_atom_site_B_iso_or_equiv
_atom_site_occupancy
_atom_site_attached_hydrogens
Ni1 Ni0+ 6 c 0.815 0.185 0.31 . 1. 0
Th1 Th0+ 2 b 0.3333 0.6667 0.06 . 1. 0
Th2 Th0+ 6 c 0.126 0.874 0.25 . 1. 0
Th3 Th0+ 6 c 0.544 0.456 0.03 . 1. 0
#End of TTdata_105406-ICSD
