
#(C) 2019 by FIZ Karlsruhe - Leibniz Institute for Information Infrastructure.  All rights reserved.
data_150755-ICSD
_database_code_ICSD 150755
_audit_creation_date 2006-04-01
_chemical_name_systematic 'Palladium bismuthide (1/1)'
_chemical_formula_structural 'Pd Bi'
_chemical_formula_sum 'Bi1 Pd1'
_chemical_name_structure_type IrU
_exptl_crystal_density_diffrn 12.49
_cell_measurement_temperature 493.
_publ_section_title

;
Anisotropy of physical properties and crystal structure of Pd Bi in the
interval 293-570 K
;
loop_
_citation_id
_citation_journal_full
_citation_year
_citation_journal_volume
_citation_page_first
_citation_page_last
_citation_journal_id_ASTM
primary Kristallografiya 1989 34 829 834 KRISAJ
loop_
_publ_author_name
'Ionov, V.M.'
'Tomilin, N.A.'
'Prozorovskii, A.E.'
'Klimenko, A.N.'
'Titov, Yu.V.'
'Zhukov, S.G.'
'Fetisov, G.V.'
_cell_length_a 5.674(2)
_cell_length_b 5.691(2)
_cell_length_c 10.596(4)
_cell_angle_alpha 90.
_cell_angle_beta 90.
_cell_angle_gamma 101.4(1)
_cell_volume 335.4
_cell_formula_units_Z 8
_symmetry_space_group_name_H-M 'P 1 1 21'
_symmetry_Int_Tables_number 4
_refine_ls_R_factor_all 0.07
loop_
_symmetry_equiv_pos_site_id
_symmetry_equiv_pos_as_xyz
1 '-x, -y, z+1/2'
2 'x, y, z'
loop_
_atom_type_symbol
_atom_type_oxidation_number
Bi0+ 0
Pd0+ 0
loop_
_atom_site_label
_atom_site_type_symbol
_atom_site_symmetry_multiplicity
_atom_site_Wyckoff_symbol
_atom_site_fract_x
_atom_site_fract_y
_atom_site_fract_z
_atom_site_B_iso_or_equiv
_atom_site_occupancy
_atom_site_attached_hydrogens
Bi1 Bi0+ 2 a 0.667(1) 0.142(2) 0 1.1 1. 0
Bi2 Bi0+ 2 a 0.143(4) 0.648(3) 0.034(1) 1.6 1. 0
Bi3 Bi0+ 2 a 0.623(6) 0.589(5) -0.166(2) 4.7 1. 0
Bi4 Bi0+ 2 a 0.121(3) 0.109(2) -0.213(1) 0.6 1. 0
Pd1 Pd0+ 2 a 0.457(6) 0.950(5) 0.253(3) 1.4 1. 0
Pd2 Pd0+ 2 a 0.857(2) 0.402(2) 0.222(2) 1.6 1. 0
Pd3 Pd0+ 2 a 0.677(2) 0.673(2) 0.086(2) 1.7 1. 0
Pd4 Pd0+ 2 a 0.107(2) 0.155(2) 0.039(1) 2.3 1. 0
#End of TTdata_150755-ICSD