
#(C) 2019 by FIZ Karlsruhe - Leibniz Institute for Information Infrastructure.  All rights reserved.
data_16075-ICSD
_database_code_ICSD 16075
_audit_creation_date 1986-11-04
_audit_update_record 2013-02-01
_chemical_name_systematic 'Niobium phosphide sulfide'
_chemical_formula_structural 'Nb P S'
_chemical_formula_sum 'Nb1 P1 S1'
_chemical_name_structure_type UTe2
_exptl_crystal_density_diffrn 5.37
_publ_section_title

;
The synthesis, crystal structure, and superconducting properties of niobium
phosphorus sulfide, niobium phosphorus selenide, and tantalum phosphorus
sulfide
;
loop_
_citation_id
_citation_journal_full
_citation_year
_citation_journal_volume
_citation_page_first
_citation_page_last
_citation_journal_id_ASTM
primary 'Inorganic Chemistry' 1969 8 2690 2694 INOCAJ
loop_
_publ_author_name
'Donohue, P.C.'
'Bierstedt, P.E.'
_cell_length_a 3.438(2)
_cell_length_b 11.88(1)
_cell_length_c 4.725(2)
_cell_angle_alpha 90.
_cell_angle_beta 90.
_cell_angle_gamma 90.
_cell_volume 192.99
_cell_formula_units_Z 4
_symmetry_space_group_name_H-M 'I m m m'
_symmetry_Int_Tables_number 71
_refine_ls_R_factor_all 0.093
loop_
_symmetry_equiv_pos_site_id
_symmetry_equiv_pos_as_xyz
1 'x, y, -z'
2 'x, -y, z'
3 '-x, y, z'
4 '-x, -y, -z'
5 '-x, -y, z'
6 '-x, y, -z'
7 'x, -y, -z'
8 'x, y, z'
9 'x+1/2, y+1/2, -z+1/2'
10 'x+1/2, -y+1/2, z+1/2'
11 '-x+1/2, y+1/2, z+1/2'
12 '-x+1/2, -y+1/2, -z+1/2'
13 '-x+1/2, -y+1/2, z+1/2'
14 '-x+1/2, y+1/2, -z+1/2'
15 'x+1/2, -y+1/2, -z+1/2'
16 'x+1/2, y+1/2, z+1/2'
loop_
_atom_type_symbol
_atom_type_oxidation_number
Nb3+ 3
S2- -2
P1- -1
loop_
_atom_site_label
_atom_site_type_symbol
_atom_site_symmetry_multiplicity
_atom_site_Wyckoff_symbol
_atom_site_fract_x
_atom_site_fract_y
_atom_site_fract_z
_atom_site_B_iso_or_equiv
_atom_site_occupancy
_atom_site_attached_hydrogens
Nb1 Nb3+ 4 h 0 0.1232(8) 0.5 0.1 1. 0
S1 S2- 4 g 0 0.212(2) 0 1. 1. 0
P1 P1- 4 j 0.5 0 0.235(5) 1. 1. 0
#End of TTdata_16075-ICSD
