
#(C) 2019 by FIZ Karlsruhe - Leibniz Institute for Information Infrastructure.  All rights reserved.
data_161868-ICSD
_database_code_ICSD 161868
_audit_creation_date 2009-02-01
_chemical_name_systematic 'Cerium iridium germanide (1/1/3)'
_chemical_formula_structural 'Ce Ir Ge3'
_chemical_formula_sum 'Ce1 Ge3 Ir1'
_chemical_name_structure_type BaNiSn3
_exptl_crystal_density_diffrn 9.43
_cell_measurement_temperature 300.
_publ_section_title

;
Magnetic and superconducting properties of Ce T X3 (T: transition metal and X:
Si and Ge) with nonsymmetric crystal structure
;
loop_
_citation_id
_citation_journal_full
_citation_year
_citation_journal_volume
_citation_page_first
_citation_page_last
_citation_journal_id_ASTM
primary 'Journal of the Physical Society of Japan' 2008 77 064716-1 064716-9
JUPSAU
loop_
_publ_author_name
'Kawai, T.'
'Muranaka, H.'
'Measson, M.-A.'
'Shimoda, T.'
'Doi, Y.'
'Matsuda, T.D.'
'Haga, Y.'
'Knebel, G.'
'Lapertot, G.'
'Aoki, D.'
'Flouquet, J.'
'Takeuchi, T.'
'Settai, R.'
'Onuki, Y.'
_cell_length_a 4.401(9)
_cell_length_b 4.401(9)
_cell_length_c 10.024(17)
_cell_angle_alpha 90.
_cell_angle_beta 90.
_cell_angle_gamma 90.
_cell_volume 194.15
_cell_formula_units_Z 2
_symmetry_space_group_name_H-M 'I 4 m m'
_symmetry_Int_Tables_number 107
_refine_ls_R_factor_all 0.0299
loop_
_symmetry_equiv_pos_site_id
_symmetry_equiv_pos_as_xyz
1 '-y, x, z'
2 'y, -x, z'
3 '-y, -x, z'
4 'y, x, z'
5 'x, -y, z'
6 '-x, y, z'
7 '-x, -y, z'
8 'x, y, z'
9 '-y+1/2, x+1/2, z+1/2'
10 'y+1/2, -x+1/2, z+1/2'
11 '-y+1/2, -x+1/2, z+1/2'
12 'y+1/2, x+1/2, z+1/2'
13 'x+1/2, -y+1/2, z+1/2'
14 '-x+1/2, y+1/2, z+1/2'
15 '-x+1/2, -y+1/2, z+1/2'
16 'x+1/2, y+1/2, z+1/2'
loop_
_atom_type_symbol
_atom_type_oxidation_number
Ce0+ 0
Ir0+ 0
Ge0+ 0
loop_
_atom_site_label
_atom_site_type_symbol
_atom_site_symmetry_multiplicity
_atom_site_Wyckoff_symbol
_atom_site_fract_x
_atom_site_fract_y
_atom_site_fract_z
_atom_site_B_iso_or_equiv
_atom_site_occupancy
_atom_site_attached_hydrogens
Ce1 Ce0+ 2 a 0 0 0.58008 0.44(5) 1. 0
Ir1 Ir0+ 2 a 0 0 0.23919 0.32(3) 1. 0
Ge1 Ge0+ 2 a 0 0 0 0.51(6) 1. 0
Ge2 Ge0+ 4 b 0 0.5 0.3432 0.55(9) 1. 0
#End of TTdata_161868-ICSD