
#(C) 2020 by FIZ Karlsruhe - Leibniz Institute for Information Infrastructure.  All rights reserved.
data_162858-ICSD
_database_code_ICSD 162858
_audit_creation_date 2009-08-01
_chemical_name_common 'Calcium aluminium silicide (1/1/1) - (AlB2)-type'
_chemical_formula_structural 'Ca Al Si'
_chemical_formula_sum 'Al1 Ca1 Si1'
_chemical_name_structure_type AlB2
_exptl_crystal_density_diffrn 2.36
_citation_title

;
Crystal structure, electronic structure and vibrational properties of M Al Si
H (M= Ca, Sr, Ba): hydrogenation-induced semiconductors from the (AlB2)-type
alloys M Al Si
;
loop_
_citation_id
_citation_journal_full
_citation_year
_citation_journal_volume
_citation_page_first
_citation_page_last
_citation_journal_id_ASTM
primary 'Physical Review B: Condensed Matter and Materials Physics' 2008 78 1 11
PRBMDO
loop_
_citation_author_citation_id
_citation_author_name
primary 'Lee Myeong H.'
primary 'Bjoerling, T.'
primary 'Hauback, B.C.'
primary 'Utsumi, T.'
primary 'Moser, D.'
primary 'Bull, D.'
primary 'Noreus, D.'
primary 'Sankey, O.F.'
primary 'Haeussermann, U.'
_cell_length_a 4.1902(4)
_cell_length_b 4.1902(4)
_cell_length_c 4.3994(6)
_cell_angle_alpha 90.
_cell_angle_beta 90.
_cell_angle_gamma 120.
_cell_volume 66.89
_cell_formula_units_Z 1
_space_group_name_H-M_alt 'P 6/m m m'
_space_group_IT_number 191
loop_
_space_group_symop_id
_space_group_symop_operation_xyz
1 '-x, -x+y, -z'
2 'x-y, -y, -z'
3 'y, x, -z'
4 '-x+y, -x, -z'
5 '-y, x-y, -z'
6 'x, y, -z'
7 'x, x-y, -z'
8 '-x+y, y, -z'
9 '-y, -x, -z'
10 'x-y, x, -z'
11 'y, -x+y, -z'
12 '-x, -y, -z'
13 'x, x-y, z'
14 '-x+y, y, z'
15 '-y, -x, z'
16 'x-y, x, z'
17 'y, -x+y, z'
18 '-x, -y, z'
19 '-x, -x+y, z'
20 'x-y, -y, z'
21 'y, x, z'
22 '-x+y, -x, z'
23 '-y, x-y, z'
24 'x, y, z'
loop_
_atom_type_symbol
_atom_type_oxidation_number
Ca0+ 0
Al0+ 0
Si0+ 0
loop_
_atom_site_label
_atom_site_type_symbol
_atom_site_symmetry_multiplicity
_atom_site_Wyckoff_symbol
_atom_site_fract_x
_atom_site_fract_y
_atom_site_fract_z
_atom_site_B_iso_or_equiv
_atom_site_occupancy
Ca1 Ca0+ 1 a 0 0 0 . 1.
Al1 Al0+ 2 d 0.3333 0.6667 0.5 . 0.5
Si1 Si0+ 2 d 0.3333 0.6667 0.5 . 0.5
#End of TTdata_162858-ICSD