
#(C) 2019 by FIZ Karlsruhe - Leibniz Institute for Information Infrastructure.  All rights reserved.
data_16306-ICSD
_database_code_ICSD 16306
_audit_creation_date 1980-01-01
_audit_update_record 2018-08-01
_chemical_name_systematic 'Zirconium ruthenium silicide (1/1/1)'
_chemical_formula_structural 'Zr Ru Si'
_chemical_formula_sum 'Ru1 Si1 Zr1'
_chemical_name_structure_type ZrNiAl-Fe2P
_exptl_crystal_density_diffrn 7.73
_publ_section_title
'Ternary equiatomic transition metal silicides and germanides'
loop_
_citation_id
_citation_journal_full
_citation_year
_citation_journal_volume
_citation_page_first
_citation_page_last
_citation_journal_id_ASTM
primary 'Journal of Solid State Chemistry' 1972 4 123 130 JSSCBI
loop_
_publ_author_name
'Johnson, Vancliff'
'Jeitschko, Wolfgang'
_cell_length_a 6.6838(2)
_cell_length_b 6.6838(2)
_cell_length_c 3.6717(3)
_cell_angle_alpha 90.
_cell_angle_beta 90.
_cell_angle_gamma 120.
_cell_volume 142.05
_cell_formula_units_Z 3
_symmetry_space_group_name_H-M 'P -6 2 m'
_symmetry_Int_Tables_number 189
_refine_ls_R_factor_all 0.1
loop_
_symmetry_equiv_pos_site_id
_symmetry_equiv_pos_as_xyz
1 '-x, -x+y, -z'
2 'x-y, -y, -z'
3 'y, x, -z'
4 '-x, -x+y, z'
5 'x-y, -y, z'
6 'y, x, z'
7 '-x+y, -x, -z'
8 '-y, x-y, -z'
9 'x, y, -z'
10 '-x+y, -x, z'
11 '-y, x-y, z'
12 'x, y, z'
loop_
_atom_type_symbol
_atom_type_oxidation_number
Zr0+ 0
Ru0+ 0
Si0+ 0
loop_
_atom_site_label
_atom_site_type_symbol
_atom_site_symmetry_multiplicity
_atom_site_Wyckoff_symbol
_atom_site_fract_x
_atom_site_fract_y
_atom_site_fract_z
_atom_site_B_iso_or_equiv
_atom_site_occupancy
_atom_site_attached_hydrogens
Zr1 Zr0+ 3 g 0.580(2) 0 0.5 . 1. 0
Ru1 Ru0+ 3 f 0.248(2) 0 0 . 1. 0
Si1 Si0+ 2 c 0.3333 0.6667 0 . 1. 0
Si2 Si0+ 1 b 0 0 0.5 . 1. 0
#End of TTdata_16306-ICSD
