
#(C) 2019 by FIZ Karlsruhe - Leibniz Institute for Information Infrastructure.  All rights reserved.
data_163909-ICSD
_database_code_ICSD 163909
_audit_creation_date 2009-08-01
_audit_update_record 2013-02-01
_chemical_name_systematic 'Magnesium iridium boride (10/19/16)'
_chemical_formula_structural 'Mg10 Ir19 B16'
_chemical_formula_sum 'B16 Ir19 Mg10'
_exptl_crystal_density_diffrn 11.5
_publ_section_title 'Ab initio structure determination of Mg10 Ir19 B16'
loop_
_citation_id
_citation_journal_full
_citation_year
_citation_journal_volume
_citation_page_first
_citation_page_last
_citation_journal_id_ASTM
primary 'Chemistry of Materials' 2009 21 2499 2507 CMATEX
loop_
_publ_author_name
'Xu Qiang'
'Klimczuk, T.'
'Gortenmulder, T.'
'Jansen, J.'
'McGuire, M.A.'
'Cava, R.J.'
'Zandbergen, H.W.'
_cell_length_a 10.56782(4)
_cell_length_b 10.56782(4)
_cell_length_c 10.56782(4)
_cell_angle_alpha 90.
_cell_angle_beta 90.
_cell_angle_gamma 90.
_cell_volume 1180.2
_cell_formula_units_Z 2
_symmetry_space_group_name_H-M 'I -4 3 m'
_symmetry_Int_Tables_number 217
_refine_ls_R_factor_all 0.056
loop_
_symmetry_equiv_pos_site_id
_symmetry_equiv_pos_as_xyz
1 '-z, -y, x'
2 '-y, -x, z'
3 '-x, -z, y'
4 '-z, -x, y'
5 '-y, -z, x'
6 '-x, -y, z'
7 '-z, y, -x'
8 '-y, x, -z'
9 '-x, z, -y'
10 '-z, x, -y'
11 '-y, z, -x'
12 '-x, y, -z'
13 'z, -y, -x'
14 'y, -x, -z'
15 'x, -z, -y'
16 'z, -x, -y'
17 'y, -z, -x'
18 'x, -y, -z'
19 'z, y, x'
20 'y, x, z'
21 'x, z, y'
22 'z, x, y'
23 'y, z, x'
24 'x, y, z'
25 '-z+1/2, -y+1/2, x+1/2'
26 '-y+1/2, -x+1/2, z+1/2'
27 '-x+1/2, -z+1/2, y+1/2'
28 '-z+1/2, -x+1/2, y+1/2'
29 '-y+1/2, -z+1/2, x+1/2'
30 '-x+1/2, -y+1/2, z+1/2'
31 '-z+1/2, y+1/2, -x+1/2'
32 '-y+1/2, x+1/2, -z+1/2'
33 '-x+1/2, z+1/2, -y+1/2'
34 '-z+1/2, x+1/2, -y+1/2'
35 '-y+1/2, z+1/2, -x+1/2'
36 '-x+1/2, y+1/2, -z+1/2'
37 'z+1/2, -y+1/2, -x+1/2'
38 'y+1/2, -x+1/2, -z+1/2'
39 'x+1/2, -z+1/2, -y+1/2'
40 'z+1/2, -x+1/2, -y+1/2'
41 'y+1/2, -z+1/2, -x+1/2'
42 'x+1/2, -y+1/2, -z+1/2'
43 'z+1/2, y+1/2, x+1/2'
44 'y+1/2, x+1/2, z+1/2'
45 'x+1/2, z+1/2, y+1/2'
46 'z+1/2, x+1/2, y+1/2'
47 'y+1/2, z+1/2, x+1/2'
48 'x+1/2, y+1/2, z+1/2'
loop_
_atom_type_symbol
_atom_type_oxidation_number
Ir0+ 0
Mg0+ 0
B0+ 0
loop_
_atom_site_label
_atom_site_type_symbol
_atom_site_symmetry_multiplicity
_atom_site_Wyckoff_symbol
_atom_site_fract_x
_atom_site_fract_y
_atom_site_fract_z
_atom_site_B_iso_or_equiv
_atom_site_occupancy
_atom_site_attached_hydrogens
Ir1 Ir0+ 2 a 0 0 0 3.04(3) 1. 0
Ir2 Ir0+ 12 d 0 0.25 0.5 0.99(1) 1. 0
Ir3 Ir0+ 24 g 0.07025(5) 0.25248(4) 0.25248(4) 1.19(1) 1. 0
Mg1 Mg0+ 8 c 0.3331(2) 0.3331(2) 0.3331(2) 0.15(2) 1. 0
Mg2 Mg0+ 12 e 0 0 0.3473(3) 0.15(2) 1. 0
B1 B0+ 8 c 0.1127(3) 0.1127(3) 0.1127(3) 0.10(9) 1. 0
B2 B0+ 24 g 0.1639(2) 0.1639(2) 0.4140(3) 0.48(6) 1. 0
#End of TTdata_163909-ICSD