
#(C) 2019 by FIZ Karlsruhe - Leibniz Institute for Information Infrastructure.  All rights reserved.
data_168862-ICSD
_database_code_ICSD 168862
_audit_creation_date 2011-02-01
_chemical_name_systematic 'Strontium palladium germanide (1/1/3)'
_chemical_formula_structural 'Sr Pd Ge3'
_chemical_formula_sum 'Ge3 Pd1 Sr1'
_chemical_name_structure_type BaNiSn3
_exptl_crystal_density_diffrn 6.69
_publ_section_title
'(Ba Ni Sn3)-type ternary germanides Sr M Ge3 (M = Ir, Pd and Pt)'
loop_
_citation_id
_citation_journal_full
_citation_year
_citation_journal_volume
_citation_page_first
_citation_page_last
_citation_journal_id_ASTM
primary 'Journal of Alloys and Compounds' 2010 508 338 341 JALCEU
loop_
_publ_author_name
'Fujii, H.'
'Sato, A.'
_cell_length_a 4.4623(2)
_cell_length_b 4.4623(2)
_cell_length_c 10.2737(7)
_cell_angle_alpha 90.
_cell_angle_beta 90.
_cell_angle_gamma 90.
_cell_volume 204.57
_cell_formula_units_Z 2
_symmetry_space_group_name_H-M 'I 4 m m'
_symmetry_Int_Tables_number 107
_refine_ls_R_factor_all 0.0431
loop_
_symmetry_equiv_pos_site_id
_symmetry_equiv_pos_as_xyz
1 '-y, x, z'
2 'y, -x, z'
3 '-y, -x, z'
4 'y, x, z'
5 'x, -y, z'
6 '-x, y, z'
7 '-x, -y, z'
8 'x, y, z'
9 '-y+1/2, x+1/2, z+1/2'
10 'y+1/2, -x+1/2, z+1/2'
11 '-y+1/2, -x+1/2, z+1/2'
12 'y+1/2, x+1/2, z+1/2'
13 'x+1/2, -y+1/2, z+1/2'
14 '-x+1/2, y+1/2, z+1/2'
15 '-x+1/2, -y+1/2, z+1/2'
16 'x+1/2, y+1/2, z+1/2'
loop_
_atom_type_symbol
_atom_type_oxidation_number
Sr0+ 0
Pd0+ 0
Ge0+ 0
loop_
_atom_site_label
_atom_site_type_symbol
_atom_site_symmetry_multiplicity
_atom_site_Wyckoff_symbol
_atom_site_fract_x
_atom_site_fract_y
_atom_site_fract_z
_atom_site_B_iso_or_equiv
_atom_site_occupancy
_atom_site_attached_hydrogens
Sr1 Sr0+ 2 a 0 0 0.0000(2) 0.0145(3) 1. 0
Pd1 Pd0+ 2 a 0 0 0.6419(1) 0.0123(2) 1. 0
Ge1 Ge0+ 4 b 0 0.5 0.2532(1) 0.0134(2) 1. 0
Ge2 Ge0+ 2 a 0 0 0.3994(2) 0.0143(4) 1. 0
#End of TTdata_168862-ICSD