
#(C) 2019 by FIZ Karlsruhe - Leibniz Institute for Information Infrastructure.  All rights reserved.
data_169691-ICSD
_database_code_ICSD 169691
_audit_creation_date 2011-08-01
_audit_update_record 2018-08-01
_chemical_name_systematic 'Europium diiron diarsenide'
_chemical_formula_structural 'Eu Fe2 As2'
_chemical_formula_sum 'As2 Eu1 Fe2'
_chemical_name_structure_type ThCr2Si2
_exptl_crystal_density_diffrn 11.12
_cell_measurement_temperature 293.
_cell_measurement_pressure 70000000.
_publ_section_title

;
Anomalous compressibility effects and superconductivity of Eu Fe2 As2 under
high pressures
;
loop_
_citation_id
_citation_journal_full
_citation_year
_citation_journal_volume
_citation_page_first
_citation_page_last
_citation_journal_id_ASTM
primary 'Journal of Physics: Condensed Matter' 2010 22 292202-1 292202-5 JCOMEL
loop_
_publ_author_name
'Uhoya, W.'
'Tsoi, G.'
'Vohra, Y.K.'
'McGuire, M.A.'
'Sefat, A.S.'
'Sales, B.C.'
'Mandrus, D.'
'Weir, S.T.'
_cell_length_a 3.692(11)
_cell_length_b 3.692(11)
_cell_length_c 9.059(27)
_cell_angle_alpha 90.
_cell_angle_beta 90.
_cell_angle_gamma 90.
_cell_volume 123.48
_cell_formula_units_Z 2
_symmetry_space_group_name_H-M 'I 4/m m m'
_symmetry_Int_Tables_number 139
loop_
_symmetry_equiv_pos_site_id
_symmetry_equiv_pos_as_xyz
1 'y, x, -z'
2 '-y, -x, -z'
3 '-y, x, -z'
4 'y, -x, -z'
5 '-x, y, -z'
6 'x, -y, -z'
7 'x, y, -z'
8 '-x, -y, -z'
9 '-y, -x, z'
10 'y, x, z'
11 'y, -x, z'
12 '-y, x, z'
13 'x, -y, z'
14 '-x, y, z'
15 '-x, -y, z'
16 'x, y, z'
17 'y+1/2, x+1/2, -z+1/2'
18 '-y+1/2, -x+1/2, -z+1/2'
19 '-y+1/2, x+1/2, -z+1/2'
20 'y+1/2, -x+1/2, -z+1/2'
21 '-x+1/2, y+1/2, -z+1/2'
22 'x+1/2, -y+1/2, -z+1/2'
23 'x+1/2, y+1/2, -z+1/2'
24 '-x+1/2, -y+1/2, -z+1/2'
25 '-y+1/2, -x+1/2, z+1/2'
26 'y+1/2, x+1/2, z+1/2'
27 'y+1/2, -x+1/2, z+1/2'
28 '-y+1/2, x+1/2, z+1/2'
29 'x+1/2, -y+1/2, z+1/2'
30 '-x+1/2, y+1/2, z+1/2'
31 '-x+1/2, -y+1/2, z+1/2'
32 'x+1/2, y+1/2, z+1/2'
loop_
_atom_type_symbol
_atom_type_oxidation_number
Eu2+ 2
Fe2+ 2
As3- -3
loop_
_atom_site_label
_atom_site_type_symbol
_atom_site_symmetry_multiplicity
_atom_site_Wyckoff_symbol
_atom_site_fract_x
_atom_site_fract_y
_atom_site_fract_z
_atom_site_B_iso_or_equiv
_atom_site_occupancy
_atom_site_attached_hydrogens
Eu1 Eu2+ 2 a 0 0 0 . 1. 0
Fe1 Fe2+ 4 d 0 0.5 0.25 . 1. 0
As1 As3- 4 e 0 0 0.36 . 1. 0
#End of TTdata_169691-ICSD