
#(C) 2019 by FIZ Karlsruhe - Leibniz Institute for Information Infrastructure.  All rights reserved.
data_170218-ICSD
_database_code_ICSD 170218
_audit_creation_date 2006-04-01
_chemical_name_systematic 'Dibarium tribismuthide'
_chemical_formula_structural 'Ba2 Bi3'
_chemical_formula_sum 'Ba2 Bi3'
_chemical_name_structure_type Au3K2
_exptl_crystal_density_diffrn 7.79
_publ_section_title

;
Nonclassical bonding in the novel structure of Ba2 Bi3 and unexpected site
preference in the coloring variant Ba2 Bi Sb2
;
loop_
_citation_id
_citation_journal_full
_citation_year
_citation_journal_volume
_citation_page_first
_citation_page_last
_citation_journal_id_ASTM
primary 'Inorganic Chemistry' 2004 43 6124 6126 INOCAJ
loop_
_publ_author_name
'Ponou, S.'
'Faessler, T.F.'
_cell_length_a 4.8186(15)
_cell_length_b 7.989(4)
_cell_length_c 9.982(3)
_cell_angle_alpha 90.
_cell_angle_beta 90.
_cell_angle_gamma 90.
_cell_volume 384.27
_cell_formula_units_Z 2
_symmetry_space_group_name_H-M 'I m m m'
_symmetry_Int_Tables_number 71
_refine_ls_R_factor_all 0.0898
loop_
_symmetry_equiv_pos_site_id
_symmetry_equiv_pos_as_xyz
1 'x, y, -z'
2 'x, -y, z'
3 '-x, y, z'
4 '-x, -y, -z'
5 '-x, -y, z'
6 '-x, y, -z'
7 'x, -y, -z'
8 'x, y, z'
9 'x+1/2, y+1/2, -z+1/2'
10 'x+1/2, -y+1/2, z+1/2'
11 '-x+1/2, y+1/2, z+1/2'
12 '-x+1/2, -y+1/2, -z+1/2'
13 '-x+1/2, -y+1/2, z+1/2'
14 '-x+1/2, y+1/2, -z+1/2'
15 'x+1/2, -y+1/2, -z+1/2'
16 'x+1/2, y+1/2, z+1/2'
loop_
_atom_type_symbol
_atom_type_oxidation_number
Bi0+ 0
Ba0+ 0
loop_
_atom_site_label
_atom_site_type_symbol
_atom_site_symmetry_multiplicity
_atom_site_Wyckoff_symbol
_atom_site_fract_x
_atom_site_fract_y
_atom_site_fract_z
_atom_site_B_iso_or_equiv
_atom_site_occupancy
_atom_site_attached_hydrogens
Bi1 Bi0+ 2 a 0. 0. 0. 0.0431(12) 1 0
Bi2 Bi0+ 4 h -0.5 -0.2968(4) 0. 0.0345(9) 1 0
Ba1 Ba0+ 4 j -0.5 0. -0.2755(4) 0.0331(10) 1 0
loop_
_atom_site_aniso_label
_atom_site_aniso_type_symbol
_atom_site_aniso_U_11
_atom_site_aniso_U_22
_atom_site_aniso_U_33
_atom_site_aniso_U_12
_atom_site_aniso_U_13
_atom_site_aniso_U_23
Bi1 Bi0+ 0.0334(19) 0.070(3) 0.0256(17) 0. 0. 0.
Bi2 Bi0+ 0.0414(15) 0.0379(15) 0.0242(12) 0. 0. 0.
Ba1 Ba0+ 0.0309(18) 0.041(2) 0.0271(17) 0. 0. 0.
#End of TTdata_170218-ICSD
