
#(C) 2019 by FIZ Karlsruhe - Leibniz Institute for Information Infrastructure.  All rights reserved.
data_174267-ICSD
_database_code_ICSD 174267
_audit_creation_date 2010-08-01
_chemical_name_systematic 'Barium platinum silicide (1/1/3)'
_chemical_formula_structural 'Ba Pt Si3'
_chemical_formula_sum 'Ba1 Pt1 Si3'
_chemical_name_structure_type BaNiSn3
_exptl_crystal_density_diffrn 7.11
_publ_section_title

;
Ternary systems Sr - {Ni, Cu} - Si: Phase equilibria and crystal structure of
ternary phases
;
loop_
_citation_id
_citation_journal_full
_citation_year
_citation_journal_volume
_citation_page_first
_citation_page_last
_citation_journal_id_ASTM
primary 'Journal of Solid State Chemistry' 2010 183 565 574 JSSCBI
loop_
_publ_author_name
'Nasir, N.'
'Melnychenko Koblyuk, N.'
'Grytsiv, A.'
'Rogl, R.'
'Giester, G.'
'Wosik, J.'
'Nauer, G.E.'
_cell_length_a 4.4079(2)
_cell_length_b 4.4079(2)
_cell_length_c 10.017(2)
_cell_angle_alpha 90.
_cell_angle_beta 90.
_cell_angle_gamma 90.
_cell_volume 194.63
_cell_formula_units_Z 2
_symmetry_space_group_name_H-M 'I 4 m m'
_symmetry_Int_Tables_number 107
_refine_ls_R_factor_all 0.072
loop_
_symmetry_equiv_pos_site_id
_symmetry_equiv_pos_as_xyz
1 '-y, x, z'
2 'y, -x, z'
3 '-y, -x, z'
4 'y, x, z'
5 'x, -y, z'
6 '-x, y, z'
7 '-x, -y, z'
8 'x, y, z'
9 '-y+1/2, x+1/2, z+1/2'
10 'y+1/2, -x+1/2, z+1/2'
11 '-y+1/2, -x+1/2, z+1/2'
12 'y+1/2, x+1/2, z+1/2'
13 'x+1/2, -y+1/2, z+1/2'
14 '-x+1/2, y+1/2, z+1/2'
15 '-x+1/2, -y+1/2, z+1/2'
16 'x+1/2, y+1/2, z+1/2'
loop_
_atom_type_symbol
_atom_type_oxidation_number
Ba0+ 0
Pt0+ 0
Si0+ 0
loop_
_atom_site_label
_atom_site_type_symbol
_atom_site_symmetry_multiplicity
_atom_site_Wyckoff_symbol
_atom_site_fract_x
_atom_site_fract_y
_atom_site_fract_z
_atom_site_B_iso_or_equiv
_atom_site_occupancy
_atom_site_attached_hydrogens
Ba1 Ba0+ 2 a 0 0 0.5991(9) 0.37(6) 1. 0
Pt1 Pt0+ 2 a 0 0 0.2477(9) 0.13(4) 1. 0
Si1 Si0+ 2 a 0 0 0.0000(2) 1.0(2) 1. 0
Si2 Si0+ 4 b 0 0.5 0.356(1) 0.8(1) 1. 0
#End of TTdata_174267-ICSD
