
#(C) 2019 by FIZ Karlsruhe - Leibniz Institute for Information Infrastructure.  All rights reserved.
data_187693-ICSD
_database_code_ICSD 187693
_audit_creation_date 2013-08-01
_chemical_name_systematic 'Niobium silicide arsenide (1/1/1)'
_chemical_formula_structural 'Nb Si As'
_chemical_formula_sum 'As1 Nb1 Si1'
_chemical_name_structure_type ZrSSi/UP2
_exptl_crystal_density_diffrn 6.76
_cell_measurement_temperature 293.
_publ_section_title 'Superconductivity in a Pb F Cl-type pnictide: Nb Si As'
loop_
_citation_id
_citation_journal_full
_citation_year
_citation_journal_volume
_citation_page_first
_citation_page_last
_citation_journal_id_ASTM
primary 'EPL - A Letters Journal Exploring the Frontiers of Physics' 2012 99
27002-1 27002-6 EPLAC4
loop_
_publ_author_name
'Ryu, Gihun'
'Kim, Sung Wng'
'Mizoguchi, Hiroshi'
'Matsuishi, Satoru'
'Hosono, Hideo'
_cell_length_a 3.4914(1)
_cell_length_b 3.4914(1)
_cell_length_c 7.9005(1)
_cell_angle_alpha 90.
_cell_angle_beta 90.
_cell_angle_gamma 90.
_cell_volume 96.31
_cell_formula_units_Z 2
_symmetry_space_group_name_H-M 'P 4/n m m Z'
_symmetry_Int_Tables_number 129
_refine_ls_R_factor_all 0.0527
loop_
_symmetry_equiv_pos_site_id
_symmetry_equiv_pos_as_xyz
1 'y+1/2, x+1/2, -z'
2 '-y, x+1/2, -z'
3 'y+1/2, -x, -z'
4 '-y, -x, -z'
5 'x+1/2, y+1/2, -z'
6 '-x, y+1/2, -z'
7 'x+1/2, -y, -z'
8 '-x, -y, -z'
9 '-y+1/2, -x+1/2, z'
10 'y, -x+1/2, z'
11 '-y+1/2, x, z'
12 'y, x, z'
13 '-x+1/2, -y+1/2, z'
14 'x, -y+1/2, z'
15 '-x+1/2, y, z'
16 'x, y, z'
loop_
_atom_type_symbol
_atom_type_oxidation_number
Nb0+ 0
Si0+ 0
As0+ 0
loop_
_atom_site_label
_atom_site_type_symbol
_atom_site_symmetry_multiplicity
_atom_site_Wyckoff_symbol
_atom_site_fract_x
_atom_site_fract_y
_atom_site_fract_z
_atom_site_B_iso_or_equiv
_atom_site_occupancy
_atom_site_attached_hydrogens
Nb1 Nb0+ 2 c 0.25 0.25 0.2550(2) . 1. 0
Si1 Si0+ 2 a 0.75 0.25 0 . 1. 0
As1 As0+ 2 c 0.25 0.25 0.6146(2) . 1. 0
#End of TTdata_187693-ICSD