
#(C) 2019 by FIZ Karlsruhe - Leibniz Institute for Information Infrastructure.  All rights reserved.
data_189036-ICSD
_database_code_ICSD 189036
_audit_creation_date 2014-02-01
_chemical_name_systematic 'Potassium iron arsenide (1/2/2)'
_chemical_formula_structural 'K Fe2 As2'
_chemical_formula_sum 'As2 Fe2 K1'
_chemical_name_structure_type BaZn2P2
_exptl_crystal_density_diffrn 4.95
_cell_measurement_temperature 1.7
_publ_section_title 'Phase diagram of Ba1-x Kx Fe2 As2'
loop_
_citation_id
_citation_journal_full
_citation_year
_citation_journal_volume
_citation_page_first
_citation_page_last
_citation_journal_id_ASTM
primary 'Physical Review B: Condensed Matter and Materials Physics' 2012 85
184507-1 184507-12 PRBMDO
loop_
_publ_author_name
'Avci, S.'
'Chmaissem, O.'
'Chung, D.Y.'
'Rosenkranz, S.'
'Goremychkin, E.A.'
'Castellan, J.P.'
'Todorov, I.S.'
'Schlueter, J.A.'
'Claus, H.'
'Daoud-Aladine, A.'
'Khalyavin, D.D.'
'Kanatzidis, M.G.'
'Osborn, R.'
_cell_length_a 3.8251(2)
_cell_length_b 3.8251(2)
_cell_length_c 13.7846(5)
_cell_angle_alpha 90.
_cell_angle_beta 90.
_cell_angle_gamma 90.
_cell_volume 201.69
_cell_formula_units_Z 2
_symmetry_space_group_name_H-M 'I 4/m m m'
_symmetry_Int_Tables_number 139
loop_
_symmetry_equiv_pos_site_id
_symmetry_equiv_pos_as_xyz
1 'y, x, -z'
2 '-y, -x, -z'
3 '-y, x, -z'
4 'y, -x, -z'
5 '-x, y, -z'
6 'x, -y, -z'
7 'x, y, -z'
8 '-x, -y, -z'
9 '-y, -x, z'
10 'y, x, z'
11 'y, -x, z'
12 '-y, x, z'
13 'x, -y, z'
14 '-x, y, z'
15 '-x, -y, z'
16 'x, y, z'
17 'y+1/2, x+1/2, -z+1/2'
18 '-y+1/2, -x+1/2, -z+1/2'
19 '-y+1/2, x+1/2, -z+1/2'
20 'y+1/2, -x+1/2, -z+1/2'
21 '-x+1/2, y+1/2, -z+1/2'
22 'x+1/2, -y+1/2, -z+1/2'
23 'x+1/2, y+1/2, -z+1/2'
24 '-x+1/2, -y+1/2, -z+1/2'
25 '-y+1/2, -x+1/2, z+1/2'
26 'y+1/2, x+1/2, z+1/2'
27 'y+1/2, -x+1/2, z+1/2'
28 '-y+1/2, x+1/2, z+1/2'
29 'x+1/2, -y+1/2, z+1/2'
30 '-x+1/2, y+1/2, z+1/2'
31 '-x+1/2, -y+1/2, z+1/2'
32 'x+1/2, y+1/2, z+1/2'
loop_
_atom_type_symbol
_atom_type_oxidation_number
K1+ 1
Fe2+ 2.5
As3- -3
loop_
_atom_site_label
_atom_site_type_symbol
_atom_site_symmetry_multiplicity
_atom_site_Wyckoff_symbol
_atom_site_fract_x
_atom_site_fract_y
_atom_site_fract_z
_atom_site_B_iso_or_equiv
_atom_site_occupancy
_atom_site_attached_hydrogens
K1 K1+ 2 a 0 0 0 . 1. 0
Fe1 Fe2+ 4 d 0 0.5 0.25 . 1. 0
As1 As3- 4 e 0 0 0.35314(4) . 1. 0
#End of TTdata_189036-ICSD