
#(C) 2019 by FIZ Karlsruhe - Leibniz Institute for Information Infrastructure.  All rights reserved.
data_191970-ICSD
_database_code_ICSD 191970
_audit_creation_date 2015-02-01
_chemical_name_systematic 'Lanthanum nickel germanide (2/1/3)'
_chemical_formula_structural 'La2 Ni Ge3'
_chemical_formula_sum 'Ge3 La2 Ni1'
_chemical_name_structure_type Er2RhSi3(P6-2c)
_exptl_crystal_density_diffrn 6.97
_cell_measurement_temperature 298.
_publ_section_title

;
Neutron diffraction studies on structural and magnetic properties of RE2 Ni
Ge3 (RE = La, Ce)
;
loop_
_citation_id
_citation_journal_full
_citation_year
_citation_journal_volume
_citation_page_first
_citation_page_last
_citation_journal_id_ASTM
primary 'Journal of Solid State Chemistry' 2014 217 113 119 JSSCBI
loop_
_publ_author_name
'Kalsi, Deepti'
'Rayaprol, S.'
'Siruguri, V.'
'Peter, Sebastian C.'
_cell_length_a 8.3845(4)
_cell_length_b 8.3845(4)
_cell_length_c 8.6807(4)
_cell_angle_alpha 90.
_cell_angle_beta 90.
_cell_angle_gamma 120.
_cell_volume 528.49
_cell_formula_units_Z 4
_symmetry_space_group_name_H-M 'P -6 2 c'
_symmetry_Int_Tables_number 190
_refine_ls_R_factor_all 0.031
loop_
_symmetry_equiv_pos_site_id
_symmetry_equiv_pos_as_xyz
1 '-x, -x+y, -z'
2 'x-y, -y, -z'
3 'y, x, -z'
4 '-x, -x+y, z+1/2'
5 'x-y, -y, z+1/2'
6 'y, x, z+1/2'
7 '-x+y, -x, -z+1/2'
8 '-y, x-y, -z+1/2'
9 'x, y, -z+1/2'
10 '-x+y, -x, z'
11 '-y, x-y, z'
12 'x, y, z'
loop_
_atom_type_symbol
_atom_type_oxidation_number
La0+ 0
Ni0+ 0
Ge0+ 0
loop_
_atom_site_label
_atom_site_type_symbol
_atom_site_symmetry_multiplicity
_atom_site_Wyckoff_symbol
_atom_site_fract_x
_atom_site_fract_y
_atom_site_fract_z
_atom_site_B_iso_or_equiv
_atom_site_occupancy
_atom_site_attached_hydrogens
La1 La0+ 2 b 0 0 0.25 0.0103 1. 0
La2 La0+ 6 h 0.00313 0.50488 0.25 0.0048 1. 0
Ni1 Ni0+ 4 f 0.3333 0.6667 0.01861 0.0104 1. 0
Ge1 Ge0+ 12 i 0.1639 0.33085 0.00143 0.0052 1. 0
#End of TTdata_191970-ICSD