
#(C) 2019 by FIZ Karlsruhe - Leibniz Institute for Information Infrastructure.  All rights reserved.
data_192620-ICSD
_database_code_ICSD 192620
_audit_creation_date 2015-02-01
_chemical_name_systematic 'Cerium platinum indium (3/1/11)'
_chemical_formula_structural 'Ce3 Pt In11'
_chemical_formula_sum 'Ce3 In11 Pt1'
_exptl_crystal_density_diffrn 8.43
_publ_section_title

;
Single crystal study of the layered heavy fermion compounds Ce2 Pd In8, Ce3 Pd
In11, Ce Pt In8 and Ce Pt In11
;
loop_
_citation_id
_citation_journal_full
_citation_year
_citation_journal_volume
_citation_page_first
_citation_page_last
_citation_journal_id_ASTM
primary 'Journal of Crystal Growth' 2014 397 47 52 JCRGAE
loop_
_publ_author_name
'Kratochvilova, M.'
'Dusek, M.'
'Uhlirova, K.'
'Rudajevova, A.'
'Prokleska, J.'
'Vondrackova, B.'
'Custer, J.'
'Sechovsky, V.'
_cell_length_a 4.6874(4)
_cell_length_b 4.6874(4)
_cell_length_c 16.8422(12)
_cell_angle_alpha 90.
_cell_angle_beta 90.
_cell_angle_gamma 90.
_cell_volume 370.05
_cell_formula_units_Z 1
_symmetry_space_group_name_H-M 'P 4/m m m'
_symmetry_Int_Tables_number 123
_refine_ls_R_factor_all 0.037
loop_
_symmetry_equiv_pos_site_id
_symmetry_equiv_pos_as_xyz
1 'y, x, -z'
2 '-y, -x, -z'
3 '-y, x, -z'
4 'y, -x, -z'
5 '-x, y, -z'
6 'x, -y, -z'
7 'x, y, -z'
8 '-x, -y, -z'
9 '-y, -x, z'
10 'y, x, z'
11 'y, -x, z'
12 '-y, x, z'
13 'x, -y, z'
14 '-x, y, z'
15 '-x, -y, z'
16 'x, y, z'
loop_
_atom_type_symbol
_atom_type_oxidation_number
Ce0+ 0
Pt0+ 0
In0+ 0
loop_
_atom_site_label
_atom_site_type_symbol
_atom_site_symmetry_multiplicity
_atom_site_Wyckoff_symbol
_atom_site_fract_x
_atom_site_fract_y
_atom_site_fract_z
_atom_site_B_iso_or_equiv
_atom_site_occupancy
_atom_site_attached_hydrogens
Ce1 Ce0+ 2 g 0 0 0.27755(5) 0.0093(3) 1. 0
Ce2 Ce0+ 1 a 0 0 0 0.0096(4) 1. 0
Pt1 Pt0+ 1 b 0 0 0.5 0.0104(3) 1. 0
In1 In0+ 4 i 0.5 0 0.41167(6) 0.0131(3) 1. 0
In2 In0+ 2 h 0.5 0.5 0.27784(7) 0.0138(4) 1. 0
In3 In0+ 4 i 0.5 0 0.13792(5) 0.0149(4) 1. 0
In4 In0+ 1 c 0.5 0.5 0 0.0136(5) 1. 0
#End of TTdata_192620-ICSD