
#(C) 2019 by FIZ Karlsruhe - Leibniz Institute for Information Infrastructure.  All rights reserved.
data_193321-ICSD
_database_code_ICSD 193321
_audit_creation_date 2015-08-01
_chemical_name_systematic 'Cerium platinum indium (1/2/7)'
_chemical_formula_structural 'Ce Pt2 In7'
_chemical_formula_sum 'Ce1 In7 Pt2'
_exptl_crystal_density_diffrn 9.71
_cell_measurement_temperature 173.
_publ_section_title 'Crystal structure and electronic structure of Ce Pt2 In7'
loop_
_citation_id
_citation_journal_full
_citation_year
_citation_journal_volume
_citation_page_first
_citation_page_last
_citation_journal_id_ASTM
primary 'Journal of Physics: Condensed Matter' 2014 26 402201-1 402201-5 JCOMEL
loop_
_publ_author_name
'Klimczuk, T.'
'Walter, O.'
'Muchler, L.'
'Krizan, J.W.'
'Kinnart, F.'
'Cava, R.J.'
_cell_length_a 4.5990(4)
_cell_length_b 4.5990(4)
_cell_length_c 21.580(2)
_cell_angle_alpha 90.
_cell_angle_beta 90.
_cell_angle_gamma 90.
_cell_volume 456.43
_cell_formula_units_Z 2
_symmetry_space_group_name_H-M 'I 4/m m m'
_symmetry_Int_Tables_number 139
_refine_ls_R_factor_all 0.0266
loop_
_symmetry_equiv_pos_site_id
_symmetry_equiv_pos_as_xyz
1 'y, x, -z'
2 '-y, -x, -z'
3 '-y, x, -z'
4 'y, -x, -z'
5 '-x, y, -z'
6 'x, -y, -z'
7 'x, y, -z'
8 '-x, -y, -z'
9 '-y, -x, z'
10 'y, x, z'
11 'y, -x, z'
12 '-y, x, z'
13 'x, -y, z'
14 '-x, y, z'
15 '-x, -y, z'
16 'x, y, z'
17 'y+1/2, x+1/2, -z+1/2'
18 '-y+1/2, -x+1/2, -z+1/2'
19 '-y+1/2, x+1/2, -z+1/2'
20 'y+1/2, -x+1/2, -z+1/2'
21 '-x+1/2, y+1/2, -z+1/2'
22 'x+1/2, -y+1/2, -z+1/2'
23 'x+1/2, y+1/2, -z+1/2'
24 '-x+1/2, -y+1/2, -z+1/2'
25 '-y+1/2, -x+1/2, z+1/2'
26 'y+1/2, x+1/2, z+1/2'
27 'y+1/2, -x+1/2, z+1/2'
28 '-y+1/2, x+1/2, z+1/2'
29 'x+1/2, -y+1/2, z+1/2'
30 '-x+1/2, y+1/2, z+1/2'
31 '-x+1/2, -y+1/2, z+1/2'
32 'x+1/2, y+1/2, z+1/2'
loop_
_atom_type_symbol
_atom_type_oxidation_number
Ce0+ 0
Pt0+ 0
In0+ 0
loop_
_atom_site_label
_atom_site_type_symbol
_atom_site_symmetry_multiplicity
_atom_site_Wyckoff_symbol
_atom_site_fract_x
_atom_site_fract_y
_atom_site_fract_z
_atom_site_B_iso_or_equiv
_atom_site_occupancy
_atom_site_attached_hydrogens
Ce1 Ce0+ 2 b 0 0 0.5 0.002(1) 1. 0
Pt1 Pt0+ 4 e 0 0 0.3256(1) 0.003(1) 1. 0
In1 In0+ 2 a 0 0 0 0.004(1) 1. 0
In2 In0+ 4 d 0 0.5 0.25 0.003(1) 1. 0
In3 In0+ 8 g 0 0.5 0.1079(1) 0.004(1) 1. 0
#End of TTdata_193321-ICSD