
#(C) 2019 by FIZ Karlsruhe - Leibniz Institute for Information Infrastructure.  All rights reserved.
data_194347-ICSD
_database_code_ICSD 194347
_audit_creation_date 2015-08-01
_chemical_name_systematic 'Strontium gold silicide (1/1/3)'
_chemical_formula_structural 'Sr Au Si3'
_chemical_formula_sum 'Au1 Si3 Sr1'
_chemical_name_structure_type BaNiSn3
_exptl_crystal_density_diffrn 6.33
_cell_measurement_temperature 293.
_publ_section_title 'Sr Au Si3: a noncentrosymmetric superconductor'
loop_
_citation_id
_citation_journal_full
_citation_year
_citation_journal_volume
_citation_page_first
_citation_page_last
_citation_journal_id_ASTM
primary 'Chemistry of Materials' 2014 26 2155 2165 CMATEX
loop_
_publ_author_name
'Isobe, Masaaki'
'Yoshida, Hiroyuki'
'Kimoto, Koji'
'Arai, Masao'
'Takayama-Muromachi, Eiji'
_cell_length_a 4.40903(16)
_cell_length_b 4.40903(16)
_cell_length_c 9.94755(32)
_cell_angle_alpha 90.
_cell_angle_beta 90.
_cell_angle_gamma 90.
_cell_volume 193.37
_cell_formula_units_Z 2
_symmetry_space_group_name_H-M 'I 4 m m'
_symmetry_Int_Tables_number 107
_refine_ls_R_factor_all 0.0122
loop_
_symmetry_equiv_pos_site_id
_symmetry_equiv_pos_as_xyz
1 '-y, x, z'
2 'y, -x, z'
3 '-y, -x, z'
4 'y, x, z'
5 'x, -y, z'
6 '-x, y, z'
7 '-x, -y, z'
8 'x, y, z'
9 '-y+1/2, x+1/2, z+1/2'
10 'y+1/2, -x+1/2, z+1/2'
11 '-y+1/2, -x+1/2, z+1/2'
12 'y+1/2, x+1/2, z+1/2'
13 'x+1/2, -y+1/2, z+1/2'
14 '-x+1/2, y+1/2, z+1/2'
15 '-x+1/2, -y+1/2, z+1/2'
16 'x+1/2, y+1/2, z+1/2'
loop_
_atom_type_symbol
_atom_type_oxidation_number
Sr0+ 0
Au0+ 0
Si0+ 0
loop_
_atom_site_label
_atom_site_type_symbol
_atom_site_symmetry_multiplicity
_atom_site_Wyckoff_symbol
_atom_site_fract_x
_atom_site_fract_y
_atom_site_fract_z
_atom_site_B_iso_or_equiv
_atom_site_occupancy
_atom_site_attached_hydrogens
Sr1 Sr0+ 2 a 0 0 0 0.42(4) 1. 0
Au1 Au0+ 2 a 0 0 0.6291(3) 0.63(1) 1. 0
Si1 Si0+ 2 a 0 0 0.3784(8) 0.12(6) 1. 0
Si2 Si0+ 4 b 0 0.5 0.2575(6) 0.12 1. 0
#End of TTdata_194347-ICSD