
#(C) 2019 by FIZ Karlsruhe - Leibniz Institute for Information Infrastructure.  All rights reserved.
data_195012-ICSD
_database_code_ICSD 195012
_audit_creation_date 2015-08-01
_audit_update_record 2018-08-01
_chemical_name_systematic 'Dirubidium trichromium triarsenide'
_chemical_formula_structural 'Rb2 Cr3 As3'
_chemical_formula_sum 'As3 Cr3 Rb2'
_exptl_crystal_density_diffrn 4.72
_publ_section_title
'Unconventional superconductivity in quasi-one-dimensional Rb2 Cr3 As3'
loop_
_citation_id
_citation_journal_full
_citation_year
_citation_journal_volume
_citation_page_first
_citation_page_last
_citation_journal_id_ASTM
primary 'Physical Review B: Condensed Matter and Materials Physics' 2015 91
020506-1 020506-5 PRBMDO
loop_
_publ_author_name
'Tang, Zhang-Tu'
'Bao, Jin-Ke'
'Liu, Yi'
'Sun, Yun-Lei'
'Ablimit, Abduweli'
'Zhai, Hui-Fei'
'Jiang, Hao'
'Feng, Chun-Mu'
'Xu, Zhu-an'
'Cao, Guang-Han'
_cell_length_a 10.281(1)
_cell_length_b 10.281(1)
_cell_length_c 4.2421(3)
_cell_angle_alpha 90.
_cell_angle_beta 90.
_cell_angle_gamma 120.
_cell_volume 388.31
_cell_formula_units_Z 2
_symmetry_space_group_name_H-M 'P -6 m 2'
_symmetry_Int_Tables_number 187
_refine_ls_R_factor_all 0.057
loop_
_symmetry_equiv_pos_site_id
_symmetry_equiv_pos_as_xyz
1 'x, x-y, -z'
2 '-x+y, y, -z'
3 '-y, -x, -z'
4 'x, x-y, z'
5 '-x+y, y, z'
6 '-y, -x, z'
7 '-x+y, -x, -z'
8 '-y, x-y, -z'
9 'x, y, -z'
10 '-x+y, -x, z'
11 '-y, x-y, z'
12 'x, y, z'
loop_
_atom_type_symbol
_atom_type_oxidation_number
As3- -3
Cr2+ 2.33
Rb1+ 1
loop_
_atom_site_label
_atom_site_type_symbol
_atom_site_symmetry_multiplicity
_atom_site_Wyckoff_symbol
_atom_site_fract_x
_atom_site_fract_y
_atom_site_fract_z
_atom_site_B_iso_or_equiv
_atom_site_occupancy
_atom_site_attached_hydrogens
As1 As3- 3 j 0.8382(2) 0.1618(2) 0 . 1. 0
As2 As3- 3 k 0.6727(2) 0.3273(2) 0.5 . 1. 0
Cr1 Cr2+ 3 k 0.9140(2) 0.0860(2) 0.5 . 1. 0
Cr2 Cr2+ 3 j 0.8333(3) 0.1667(3) 0 . 1. 0
Rb1 Rb1+ 3 k 0.5372(1) 0.4628(1) 0.5 . 1. 0
Rb2 Rb1+ 1 c 0.3333 0.6667 0 . 1. 0
#End of TTdata_195012-ICSD