
#(C) 2019 by FIZ Karlsruhe - Leibniz Institute for Information Infrastructure.  All rights reserved.
data_23005-ICSD
_database_code_ICSD 23005
_audit_creation_date 1980-12-31
_audit_update_record 1992-01-21
_chemical_name_systematic 'Strontium dinickel arsenide'
_chemical_formula_structural 'Sr Ni2 As2'
_chemical_formula_sum 'As2 Ni2 Sr1'
_chemical_name_structure_type ThCr2Si2
_exptl_crystal_density_diffrn 6.64
_publ_section_title
'Zur Kenntnis der Verbindungen Ca Ni2 As2, Sr Ni2 As2 und Ca2.3 Ni11.7 As7'
loop_
_citation_id
_citation_journal_full
_citation_year
_citation_journal_volume
_citation_page_first
_citation_page_last
_citation_journal_id_ASTM
primary

;
Zeitschrift fuer Naturforschung, Teil B: Anorganische Chemie, Organische
Chemie
; 1980 35 391 393 ZNBAD2
loop_
_publ_author_name
'Mewis, A.'
'Distler, A.'
_cell_length_a 4.154(1)
_cell_length_b 4.154(1)
_cell_length_c 10.290(2)
_cell_angle_alpha 90.
_cell_angle_beta 90.
_cell_angle_gamma 90.
_cell_volume 177.56
_cell_formula_units_Z 2
_symmetry_space_group_name_H-M 'I 4/m m m'
_symmetry_Int_Tables_number 139
_refine_ls_R_factor_all 0.055
loop_
_symmetry_equiv_pos_site_id
_symmetry_equiv_pos_as_xyz
1 'y, x, -z'
2 '-y, -x, -z'
3 '-y, x, -z'
4 'y, -x, -z'
5 '-x, y, -z'
6 'x, -y, -z'
7 'x, y, -z'
8 '-x, -y, -z'
9 '-y, -x, z'
10 'y, x, z'
11 'y, -x, z'
12 '-y, x, z'
13 'x, -y, z'
14 '-x, y, z'
15 '-x, -y, z'
16 'x, y, z'
17 'y+1/2, x+1/2, -z+1/2'
18 '-y+1/2, -x+1/2, -z+1/2'
19 '-y+1/2, x+1/2, -z+1/2'
20 'y+1/2, -x+1/2, -z+1/2'
21 '-x+1/2, y+1/2, -z+1/2'
22 'x+1/2, -y+1/2, -z+1/2'
23 'x+1/2, y+1/2, -z+1/2'
24 '-x+1/2, -y+1/2, -z+1/2'
25 '-y+1/2, -x+1/2, z+1/2'
26 'y+1/2, x+1/2, z+1/2'
27 'y+1/2, -x+1/2, z+1/2'
28 '-y+1/2, x+1/2, z+1/2'
29 'x+1/2, -y+1/2, z+1/2'
30 '-x+1/2, y+1/2, z+1/2'
31 '-x+1/2, -y+1/2, z+1/2'
32 'x+1/2, y+1/2, z+1/2'
loop_
_atom_type_symbol
_atom_type_oxidation_number
Sr2+ 2
Ni2+ 2
As3- -3
loop_
_atom_site_label
_atom_site_type_symbol
_atom_site_symmetry_multiplicity
_atom_site_Wyckoff_symbol
_atom_site_fract_x
_atom_site_fract_y
_atom_site_fract_z
_atom_site_B_iso_or_equiv
_atom_site_occupancy
_atom_site_attached_hydrogens
Sr1 Sr2+ 2 a 0 0 0 0.47 1. 0
Ni1 Ni2+ 4 d 0 0.5 0.25 0.66 1. 0
As1 As3- 4 e 0 0 0.3623(2) 0.59 1. 0
#End of TTdata_23005-ICSD
