
#(C) 2019 by FIZ Karlsruhe - Leibniz Institute for Information Infrastructure.  All rights reserved.
data_23460-ICSD
_database_code_ICSD 23460
_audit_creation_date 1980-01-01
_audit_update_record 2012-02-01
_chemical_name_systematic 'Magnesium boride (1/4)'
_chemical_formula_structural 'Mg B4'
_chemical_formula_sum 'B4 Mg1'
_chemical_name_structure_type MgB4
_exptl_crystal_density_diffrn 2.48
_publ_section_title 'Structure cristalline de tetraborure de magnesium'
loop_
_citation_id
_citation_journal_full
_citation_year
_citation_journal_volume
_citation_page_first
_citation_page_last
_citation_journal_id_ASTM
primary

;
Comptes Rendus des Seances de l'Academie des Sciences, Serie C: Sciences
Chimiques
; 1972 275 41 44 CHDCAQ
loop_
_publ_author_name
'Guette, A.'
'Naslain, R.'
'Galy, J.'
_cell_length_a 5.464(3)
_cell_length_b 7.472(3)
_cell_length_c 4.428(3)
_cell_angle_alpha 90.
_cell_angle_beta 90.
_cell_angle_gamma 90.
_cell_volume 180.78
_cell_formula_units_Z 4
_symmetry_space_group_name_H-M 'P n a m'
_symmetry_Int_Tables_number 62
_refine_ls_R_factor_all 0.046
loop_
_symmetry_equiv_pos_site_id
_symmetry_equiv_pos_as_xyz
1 'x+1/2, -y+1/2, z'
2 'x, y, -z+1/2'
3 '-x+1/2, y+1/2, z+1/2'
4 '-x, -y, -z'
5 '-x+1/2, y+1/2, -z'
6 '-x, -y, z+1/2'
7 'x+1/2, -y+1/2, -z+1/2'
8 'x, y, z'
loop_
_atom_type_symbol
_atom_type_oxidation_number
Mg0+ 0
B0+ 0
loop_
_atom_site_label
_atom_site_type_symbol
_atom_site_symmetry_multiplicity
_atom_site_Wyckoff_symbol
_atom_site_fract_x
_atom_site_fract_y
_atom_site_fract_z
_atom_site_B_iso_or_equiv
_atom_site_occupancy
_atom_site_attached_hydrogens
Mg1 Mg0+ 4 c 0.051(22) 0.136(41) 0.25 . 1. 0
B1 B0+ 4 c 0.275(55) 0.343(92) 0.75 . 1. 0
B2 B0+ 4 c 0.441(54) 0.146(62) 0.75 . 1. 0
B3 B0+ 8 d 0.130(54) 0.434(60) 0.442 . 1. 0
loop_
_atom_site_aniso_label
_atom_site_aniso_type_symbol
_atom_site_aniso_beta_11
_atom_site_aniso_beta_22
_atom_site_aniso_beta_33
_atom_site_aniso_beta_12
_atom_site_aniso_beta_13
_atom_site_aniso_beta_23
Mg1 Mg0+ 0.009(42) 0.003(19) 0.023(54) 0.000(43) 0 0
B1 B0+ 0.002(1) 0.001(19) 0.001(45) 0 0 0
B2 B0+ 0.002(23) 0.001(47) 0.005(24) 0.000(37) 0 0
B3 B0+ 0.003(23) 0.001(50) 0.003(43) 0.000(98) 0.000(75) 0.000(24)
#End of TTdata_23460-ICSD
