
#(C) 2019 by FIZ Karlsruhe - Leibniz Institute for Information Infrastructure.  All rights reserved.
data_236995-ICSD
_database_code_ICSD 236995
_audit_creation_date 2015-02-01
_chemical_name_systematic 'Uranium digermanide'
_chemical_formula_structural 'U Ge2'
_chemical_formula_sum 'Ge2 U1'
_chemical_name_structure_type UGe2
_exptl_crystal_density_diffrn 10.36
_cell_measurement_temperature 60.
_publ_section_title
'Neutron scattering study of the ferromagnetic superconductor U Ge2'
loop_
_citation_id
_citation_journal_full
_citation_year
_citation_journal_volume
_citation_page_first
_citation_page_last
_citation_journal_id_ASTM
primary 'Physical Review B: Condensed Matter and Materials Physics' 2001 64
174509-1 174509-7 PRBMDO
loop_
_publ_author_name
'Kernavanois, N.'
'Grenier, B.'
'Huxley, A.'
'Ressouche, E.'
'Sanchez, J.P.'
'Flouquet, J.'
_cell_length_a 3.997(3)
_cell_length_b 15.039(7)
_cell_length_c 4.087(2)
_cell_angle_alpha 90.
_cell_angle_beta 90.
_cell_angle_gamma 90.
_cell_volume 245.67
_cell_formula_units_Z 4
_symmetry_space_group_name_H-M 'C m m m'
_symmetry_Int_Tables_number 65
_refine_ls_R_factor_all 0.0525
loop_
_symmetry_equiv_pos_site_id
_symmetry_equiv_pos_as_xyz
1 'x, -y, z'
2 '-x, y, z'
3 'x, y, -z'
4 '-x, -y, -z'
5 '-x, y, -z'
6 'x, -y, -z'
7 '-x, -y, z'
8 'x, y, z'
9 'x+1/2, -y+1/2, z'
10 '-x+1/2, y+1/2, z'
11 'x+1/2, y+1/2, -z'
12 '-x+1/2, -y+1/2, -z'
13 '-x+1/2, y+1/2, -z'
14 'x+1/2, -y+1/2, -z'
15 '-x+1/2, -y+1/2, z'
16 'x+1/2, y+1/2, z'
loop_
_atom_type_symbol
_atom_type_oxidation_number
U0+ 0
Ge0+ 0
loop_
_atom_site_label
_atom_site_type_symbol
_atom_site_symmetry_multiplicity
_atom_site_Wyckoff_symbol
_atom_site_fract_x
_atom_site_fract_y
_atom_site_fract_z
_atom_site_B_iso_or_equiv
_atom_site_occupancy
_atom_site_attached_hydrogens
U1 U0+ 4 j 0 0.14094(3) 0.5 0.12(3) 1. 0
Ge1 Ge0+ 4 i 0 0.30779(4) 0 0.22(3) 1. 0
Ge2 Ge0+ 2 a 0 0 0 0.15(4) 1. 0
Ge3 Ge0+ 2 c 0.5 0 0.5 0.22(4) 1. 0
loop_
_atom_site_aniso_label
_atom_site_aniso_type_symbol
_atom_site_aniso_U_11
_atom_site_aniso_U_22
_atom_site_aniso_U_33
_atom_site_aniso_U_12
_atom_site_aniso_U_13
_atom_site_aniso_U_23
U1 U0+ 0.00101(23) 0.00116(23) 0.00244(24) 0. 0. 0.
Ge1 Ge0+ 0.00095(25) 0.00483(26) 0.00240(27) 0. 0. 0.
Ge2 Ge0+ 0.00185(33) 0.00155(32) 0.00241(33) 0. 0. 0.
Ge3 Ge0+ 0.00029(34) 0.00290(33) 0.00518(36) 0. 0. 0.
#End of TTdata_236995-ICSD