
#(C) 2019 by FIZ Karlsruhe - Leibniz Institute for Information Infrastructure.  All rights reserved.
data_236950-ICSD
_database_code_ICSD 236950
_audit_creation_date 2015-02-01
_chemical_name_systematic 'Lanthanum germanide (1/5)'
_chemical_formula_structural 'La Ge5'
_chemical_formula_sum 'Ge5 La1'
_chemical_name_structure_type CeGe5
_exptl_crystal_density_diffrn 6.57
_publ_section_title

;
High-pressure synthesis and superconductivity of LaGe5 containing a tunnel
germanium network
;
loop_
_citation_id
_citation_journal_full
_citation_year
_citation_journal_volume
_citation_page_first
_citation_page_last
_citation_journal_id_ASTM
primary 'Physical Review B: Condensed Matter and Materials Physics' 2003 67
094501-1 094501-5 PRBMDO
loop_
_publ_author_name
'Fukuoka, Hiroshi'
'Yamanaka, Shoji'
_cell_length_a 4.0290(6)
_cell_length_b 6.307(1)
_cell_length_c 9.978(2)
_cell_angle_alpha 90.
_cell_angle_beta 90.
_cell_angle_gamma 90.
_cell_volume 253.55
_cell_formula_units_Z 2
_symmetry_space_group_name_H-M 'I m m m'
_symmetry_Int_Tables_number 71
_refine_ls_R_factor_all 0.028
loop_
_symmetry_equiv_pos_site_id
_symmetry_equiv_pos_as_xyz
1 'x, y, -z'
2 'x, -y, z'
3 '-x, y, z'
4 '-x, -y, -z'
5 '-x, -y, z'
6 '-x, y, -z'
7 'x, -y, -z'
8 'x, y, z'
9 'x+1/2, y+1/2, -z+1/2'
10 'x+1/2, -y+1/2, z+1/2'
11 '-x+1/2, y+1/2, z+1/2'
12 '-x+1/2, -y+1/2, -z+1/2'
13 '-x+1/2, -y+1/2, z+1/2'
14 '-x+1/2, y+1/2, -z+1/2'
15 'x+1/2, -y+1/2, -z+1/2'
16 'x+1/2, y+1/2, z+1/2'
loop_
_atom_type_symbol
_atom_type_oxidation_number
La0+ 0
Ge0+ 0
loop_
_atom_site_label
_atom_site_type_symbol
_atom_site_symmetry_multiplicity
_atom_site_Wyckoff_symbol
_atom_site_fract_x
_atom_site_fract_y
_atom_site_fract_z
_atom_site_B_iso_or_equiv
_atom_site_occupancy
_atom_site_attached_hydrogens
La1 La0+ 2 a 0 0 0 1.05(3) 1. 0
Ge1 Ge0+ 8 l 0.5 0.2994(2) 0.8280(2) 1.30(3) 1. 0
Ge2 Ge0+ 2 d 0 0.5 0 1.71(7) 1. 0
loop_
_atom_site_aniso_label
_atom_site_aniso_type_symbol
_atom_site_aniso_U_11
_atom_site_aniso_U_22
_atom_site_aniso_U_33
_atom_site_aniso_U_12
_atom_site_aniso_U_13
_atom_site_aniso_U_23
La1 La0+ 0.0131(8) 0.0119(8) 0.0149(9) 0. 0. 0.
Ge1 Ge0+ 0.0170(8) 0.0143(7) 0.0183(9) 0. 0. 0.0008(6)
Ge2 Ge0+ 0.029(2) 0.015(1) 0.020(2) 0. 0. 0.
#End of TTdata_236950-ICSD