
#(C) 2019 by FIZ Karlsruhe - Leibniz Institute for Information Infrastructure.  All rights reserved.
data_242164-ICSD
_database_code_ICSD 242164
_audit_creation_date 2017-08-01
_chemical_name_systematic 'Rubidium iron arsenide (1/2/2)'
_chemical_formula_structural 'Rb Fe2 As2'
_chemical_formula_sum 'As2 Fe2 Rb1'
_chemical_name_structure_type BaZn2P2
_exptl_crystal_density_diffrn 5.32
_publ_section_title 'A calorimetric investigation of RbFe2As2 single crystals'
_publ_section_comment 'Cell and Type only determined'
loop_
_citation_id
_citation_journal_full
_citation_year
_citation_journal_volume
_citation_page_first
_citation_page_last
_citation_journal_id_ASTM
primary 'Physica Status Solidi B: Basic Solid State Physics' 2017 254 n-a n-a
PSSBBD
loop_
_publ_author_name
'Khim, Seunghyun'
'Aswartham, Saicharan'
'Grinenko, Vadim'
'Efremov, Dmitry'
'Blum, Christian G.F.'
'Steckel, Frank'
'Gruner, Daniel'
'Wolter, Anja U.B.'
'Drechsler, Stefan-Ludwig'
'Hess, Christian'
'Wurmehl, Sabine'
'Buechner, Bernd'
_cell_length_a 3.87
_cell_length_b 3.87
_cell_length_c 14.46
_cell_angle_alpha 90.
_cell_angle_beta 90.
_cell_angle_gamma 90.
_cell_volume 216.57
_cell_formula_units_Z 2
_symmetry_space_group_name_H-M 'I 4/m m m'
_symmetry_Int_Tables_number 139
_refine_ls_R_factor_all 0.0455
loop_
_symmetry_equiv_pos_site_id
_symmetry_equiv_pos_as_xyz
1 'y, x, -z'
2 '-y, -x, -z'
3 '-y, x, -z'
4 'y, -x, -z'
5 '-x, y, -z'
6 'x, -y, -z'
7 'x, y, -z'
8 '-x, -y, -z'
9 '-y, -x, z'
10 'y, x, z'
11 'y, -x, z'
12 '-y, x, z'
13 'x, -y, z'
14 '-x, y, z'
15 '-x, -y, z'
16 'x, y, z'
17 'y+1/2, x+1/2, -z+1/2'
18 '-y+1/2, -x+1/2, -z+1/2'
19 '-y+1/2, x+1/2, -z+1/2'
20 'y+1/2, -x+1/2, -z+1/2'
21 '-x+1/2, y+1/2, -z+1/2'
22 'x+1/2, -y+1/2, -z+1/2'
23 'x+1/2, y+1/2, -z+1/2'
24 '-x+1/2, -y+1/2, -z+1/2'
25 '-y+1/2, -x+1/2, z+1/2'
26 'y+1/2, x+1/2, z+1/2'
27 'y+1/2, -x+1/2, z+1/2'
28 '-y+1/2, x+1/2, z+1/2'
29 'x+1/2, -y+1/2, z+1/2'
30 '-x+1/2, y+1/2, z+1/2'
31 '-x+1/2, -y+1/2, z+1/2'
32 'x+1/2, y+1/2, z+1/2'
loop_
_atom_type_symbol
_atom_type_oxidation_number
Rb1+ 1
Fe2+ 2.5
As3- -3
loop_
_atom_site_label
_atom_site_type_symbol
_atom_site_symmetry_multiplicity
_atom_site_Wyckoff_symbol
_atom_site_fract_x
_atom_site_fract_y
_atom_site_fract_z
_atom_site_B_iso_or_equiv
_atom_site_occupancy
_atom_site_attached_hydrogens
Rb1 Rb1+ 2 a 0 0 0 . 1. 0
Fe1 Fe2+ 4 d 0 0.5 0.25 . 1. 0
As1 As3- 4 e 0 0 0.35 . 1. 0
#End of TTdata_242164-ICSD