
#(C) 2019 by FIZ Karlsruhe - Leibniz Institute for Information Infrastructure.  All rights reserved.
data_260538-ICSD
_database_code_ICSD 260538
_audit_creation_date 2010-02-01
_chemical_name_systematic 'Bismuth oxide molybdate (12/14/4)'
_chemical_formula_structural 'Bi12 O14 (Mo O4)4'
_chemical_formula_sum 'Bi12 Mo4 O30'
_exptl_crystal_density_diffrn 7.95
_publ_section_title

;
Structural elucidation of the Bi2(n + 2) Mon O6(n + 1) (n = 3, 4, 5 and 6)
family of fluorite superstructures by transmission electron microscopy
;
loop_
_citation_id
_citation_journal_full
_citation_year
_citation_journal_volume
_citation_page_first
_citation_page_last
_citation_journal_id_ASTM
primary

;
Acta Crystallographica, Section B: Structural Crystallography and Crystal
Chemistry
; 2009 65 458 466 ACBCAR
loop_
_publ_author_name
'Landa-Canovas, A.R.'
'Vila, E.'
'Hernandez-Velasco, J.'
'Galy, J.'
'Castro, A.'
_cell_length_a 14.5337(4)
_cell_length_b 5.64795(7)
_cell_length_c 8.6620(1)
_cell_angle_alpha 90.
_cell_angle_beta 97.979(1)
_cell_angle_gamma 90.
_cell_volume 704.14
_cell_formula_units_Z 1
_symmetry_space_group_name_H-M 'P 1 21 1'
_symmetry_Int_Tables_number 4
loop_
_symmetry_equiv_pos_site_id
_symmetry_equiv_pos_as_xyz
1 '-x, y+1/2, -z'
2 'x, y, z'
loop_
_atom_type_symbol
_atom_type_oxidation_number
Bi3+ 3
Mo6+ 6
O2- -2
loop_
_atom_site_label
_atom_site_type_symbol
_atom_site_symmetry_multiplicity
_atom_site_Wyckoff_symbol
_atom_site_fract_x
_atom_site_fract_y
_atom_site_fract_z
_atom_site_B_iso_or_equiv
_atom_site_occupancy
_atom_site_attached_hydrogens
Bi1 Bi3+ 2 a 0.5313 0.5 0.1563 . 1. 0
Bi2 Bi3+ 2 a 0.3438 0. 0.2188 . 1. 0
Bi3 Bi3+ 2 a 0.1563 0.5 0.2813 . 1. 0
Bi4 Bi3+ 2 a 0.9688 0. 0.3438 . 1. 0
Bi5 Bi3+ 2 a 0.7813 0.5 0.4063 . 1. 0
Bi6 Bi3+ 2 a 0.5938 0. 0.4688 . 1. 0
Mo1 Mo6+ 2 a 0.9063 0.5 0.0313 . 1. 0
Mo2 Mo6+ 2 a 0.7188 0. 0.0938 . 1. 0
#End of TTdata_260538-ICSD