
#(C) 2019 by FIZ Karlsruhe - Leibniz Institute for Information Infrastructure.  All rights reserved.
data_36377-ICSD
_database_code_ICSD 36377
_audit_creation_date 1984-12-31
_chemical_name_systematic 'Barium dipalladium arsenide'
_chemical_formula_structural 'Ba Pd2 As2'
_chemical_formula_sum 'As2 Ba1 Pd2'
_exptl_crystal_density_diffrn 7.99
_publ_section_title
'Der Th Cr2 Si2 Typ und verwandte Strukturen bei A Pd2 X2 Verbindungen'
loop_
_citation_id
_citation_journal_full
_citation_year
_citation_journal_volume
_citation_page_first
_citation_page_last
_citation_journal_id_ASTM
primary

;
Zeitschrift fuer Naturforschung, Teil B: Anorganische Chemie, Organische
Chemie
; 1984 39 713 720 ZNBAD2
loop_
_publ_author_name
'Mewis, A.'
_cell_length_a 4.487(1)
_cell_length_b 4.487(1)
_cell_length_c 20.635(2)
_cell_angle_alpha 90.
_cell_angle_beta 90.
_cell_angle_gamma 90.
_cell_volume 415.45
_cell_formula_units_Z 4
_symmetry_space_group_name_H-M 'I 4/m m m'
_symmetry_Int_Tables_number 139
_refine_ls_R_factor_all 0.054
loop_
_symmetry_equiv_pos_site_id
_symmetry_equiv_pos_as_xyz
1 'y, x, -z'
2 '-y, -x, -z'
3 '-y, x, -z'
4 'y, -x, -z'
5 '-x, y, -z'
6 'x, -y, -z'
7 'x, y, -z'
8 '-x, -y, -z'
9 '-y, -x, z'
10 'y, x, z'
11 'y, -x, z'
12 '-y, x, z'
13 'x, -y, z'
14 '-x, y, z'
15 '-x, -y, z'
16 'x, y, z'
17 'y+1/2, x+1/2, -z+1/2'
18 '-y+1/2, -x+1/2, -z+1/2'
19 '-y+1/2, x+1/2, -z+1/2'
20 'y+1/2, -x+1/2, -z+1/2'
21 '-x+1/2, y+1/2, -z+1/2'
22 'x+1/2, -y+1/2, -z+1/2'
23 'x+1/2, y+1/2, -z+1/2'
24 '-x+1/2, -y+1/2, -z+1/2'
25 '-y+1/2, -x+1/2, z+1/2'
26 'y+1/2, x+1/2, z+1/2'
27 'y+1/2, -x+1/2, z+1/2'
28 '-y+1/2, x+1/2, z+1/2'
29 'x+1/2, -y+1/2, z+1/2'
30 '-x+1/2, y+1/2, z+1/2'
31 '-x+1/2, -y+1/2, z+1/2'
32 'x+1/2, y+1/2, z+1/2'
loop_
_atom_type_symbol
_atom_type_oxidation_number
Ba2+ 2
Pd2+ 2
As3- -3
loop_
_atom_site_label
_atom_site_type_symbol
_atom_site_symmetry_multiplicity
_atom_site_Wyckoff_symbol
_atom_site_fract_x
_atom_site_fract_y
_atom_site_fract_z
_atom_site_B_iso_or_equiv
_atom_site_occupancy
_atom_site_attached_hydrogens
Ba1 Ba2+ 4 e 0 0 0.3757(1) . 1. 0
Pd1 Pd2+ 4 e 0 0 0.1938(1) . 1. 0
Pd2 Pd2+ 4 c 0 0.5 0 . 1. 0
As1 As3- 4 d 0 0.5 0.25 . 1. 0
As2 As3- 4 e 0 0 0.0665(1) . 1. 0
loop_
_atom_site_aniso_label
_atom_site_aniso_type_symbol
_atom_site_aniso_U_11
_atom_site_aniso_U_22
_atom_site_aniso_U_33
_atom_site_aniso_U_12
_atom_site_aniso_U_13
_atom_site_aniso_U_23
Ba1 Ba2+ 0.0070(3) 0.0070(3) 0.0084(4) 0 0 0
Pd1 Pd2+ 0.0092(6) 0.0092(1) 0.00108(66) 0 0 0
Pd2 Pd2+ 0.0096(6) 0.0073(6) 0.0103(5) 0 0 0
As1 As3- 0.0059(5) 0.0059(5) 0.0075(7) 0 0 0
As2 As3- 0.0042(5) 0.0042(5) 0.0062(7) 0 0 0
#End of TTdata_36377-ICSD
