
#(C) 2019 by FIZ Karlsruhe - Leibniz Institute for Information Infrastructure.  All rights reserved.
data_391192-ICSD
_database_code_ICSD 391192
_audit_creation_date 2004-04-01
_chemical_name_systematic 'Lanthanum nickel boride nitride (3/2/2/3)'
_chemical_formula_structural 'La3 Ni2 B2 N3'
_chemical_formula_sum 'B2 La3 N3 Ni2'
_chemical_name_structure_type La3Ni2B2N3
_exptl_crystal_density_diffrn 6.94
_publ_section_title
'X-ray single crystal refinement and superconductivity of La3 Ni2 B2 N3'
loop_
_citation_id
_citation_journal_full
_citation_year
_citation_journal_volume
_citation_page_first
_citation_page_last
_citation_journal_id_ASTM
primary 'Zeitschrift fuer Anorganische und Allgemeine Chemie (1950) (DE)' 2003
629 129 132 ZAACAB
loop_
_publ_author_name
'Blaschkowski, B.'
'Meyer, H.J.'
_cell_length_a 3.7295(2)
_cell_length_b 3.7295(2)
_cell_length_c 20.5625(18)
_cell_angle_alpha 90.
_cell_angle_beta 90.
_cell_angle_gamma 90.
_cell_volume 286.01
_cell_formula_units_Z 2
_symmetry_space_group_name_H-M 'I 4/m m m'
_symmetry_Int_Tables_number 139
_refine_ls_R_factor_all 0.0272
loop_
_symmetry_equiv_pos_site_id
_symmetry_equiv_pos_as_xyz
1 'y, x, -z'
2 '-y, -x, -z'
3 '-y, x, -z'
4 'y, -x, -z'
5 '-x, y, -z'
6 'x, -y, -z'
7 'x, y, -z'
8 '-x, -y, -z'
9 '-y, -x, z'
10 'y, x, z'
11 'y, -x, z'
12 '-y, x, z'
13 'x, -y, z'
14 '-x, y, z'
15 '-x, -y, z'
16 'x, y, z'
17 'y+1/2, x+1/2, -z+1/2'
18 '-y+1/2, -x+1/2, -z+1/2'
19 '-y+1/2, x+1/2, -z+1/2'
20 'y+1/2, -x+1/2, -z+1/2'
21 '-x+1/2, y+1/2, -z+1/2'
22 'x+1/2, -y+1/2, -z+1/2'
23 'x+1/2, y+1/2, -z+1/2'
24 '-x+1/2, -y+1/2, -z+1/2'
25 '-y+1/2, -x+1/2, z+1/2'
26 'y+1/2, x+1/2, z+1/2'
27 'y+1/2, -x+1/2, z+1/2'
28 '-y+1/2, x+1/2, z+1/2'
29 'x+1/2, -y+1/2, z+1/2'
30 '-x+1/2, y+1/2, z+1/2'
31 '-x+1/2, -y+1/2, z+1/2'
32 'x+1/2, y+1/2, z+1/2'
loop_
_atom_type_symbol
_atom_type_oxidation_number
La0+ 0
Ni0+ 0
N0+ 0
B0+ 0
loop_
_atom_site_label
_atom_site_type_symbol
_atom_site_symmetry_multiplicity
_atom_site_Wyckoff_symbol
_atom_site_fract_x
_atom_site_fract_y
_atom_site_fract_z
_atom_site_B_iso_or_equiv
_atom_site_occupancy
_atom_site_attached_hydrogens
La1 La0+ 2 a 0 0 0 0.0080(3) 1. 0
La2 La0+ 4 e 0.5 0.5 0.87054(3) 0.0076(3) 1. 0
Ni3 Ni0+ 4 d 0 0.5 0.75 0.0085(4) 1. 0
N1 N0+ 2 b 0.5 0.5 0 0.015(5) 1. 0
N2 N0+ 4 e 0 0 0.1242(4) 0.006(4) 1. 0
B1 B0+ 4 e 0 0 0.1937(6) 0.012(2) 1. 0
loop_
_atom_site_aniso_label
_atom_site_aniso_type_symbol
_atom_site_aniso_U_11
_atom_site_aniso_U_22
_atom_site_aniso_U_33
_atom_site_aniso_U_12
_atom_site_aniso_U_13
_atom_site_aniso_U_23
La1 La0+ 0.0086(4) 0.0086(4) 0.0069(5) 0 0 0
La2 La0+ 0.0067(4) 0.0067(4) 0.0094(4) 0 0 0
Ni3 Ni0+ 0.0093(5) 0.0093(5) 0.0070(5) 0 0 0
N1 N0+ 0.017(6) 0.017(6) 0.010(7) 0 0 0
N2 N0+ 0.006(4) 0.006(4) 0.005(5) 0 0 0
B1 B0+ 0.014(4) 0.014(4) 0.008(4) 0 0 0
#End of TTdata_391192-ICSD