
#(C) 2019 by FIZ Karlsruhe - Leibniz Institute for Information Infrastructure.  All rights reserved.
data_400298-ICSD
_database_code_ICSD 400298
_audit_creation_date 1994-06-30
_audit_update_record 2003-04-01
_chemical_name_systematic 'Yttrium iodide carbide (2/2/2)'
_chemical_formula_structural 'Y2 I2 C2'
_chemical_formula_sum 'C2 I2 Y2'
_chemical_name_structure_type Gd2C2Br2
_exptl_crystal_density_diffrn 5.25
_publ_section_title 'Crystal structure of diyttrium diiodide dicarbide, Y2I2C2'
loop_
_citation_id
_citation_journal_full
_citation_year
_citation_journal_volume
_citation_page_first
_citation_page_last
_citation_journal_id_ASTM
primary 'Zeitschrift fuer Kristallographie' 1994 209 281 281 ZEKRDZ
loop_
_publ_author_name
'Mattausch, H.J.'
'Borrmann, H.'
'Simon, A.'
_cell_length_a 7.174(6)
_cell_length_b 3.866(2)
_cell_length_c 10.412(11)
_cell_angle_alpha 90.
_cell_angle_beta 92.98(4)
_cell_angle_gamma 90.
_cell_volume 288.38
_cell_formula_units_Z 2
_symmetry_space_group_name_H-M 'C 1 2/m 1'
_symmetry_Int_Tables_number 12
_refine_ls_R_factor_all 0.075
loop_
_symmetry_equiv_pos_site_id
_symmetry_equiv_pos_as_xyz
1 '-x, y, -z'
2 '-x, -y, -z'
3 'x, -y, z'
4 'x, y, z'
5 '-x+1/2, y+1/2, -z'
6 '-x+1/2, -y+1/2, -z'
7 'x+1/2, -y+1/2, z'
8 'x+1/2, y+1/2, z'
loop_
_atom_type_symbol
_atom_type_oxidation_number
Y3+ 3
I1- -1
C2- -2
loop_
_atom_site_label
_atom_site_type_symbol
_atom_site_symmetry_multiplicity
_atom_site_Wyckoff_symbol
_atom_site_fract_x
_atom_site_fract_y
_atom_site_fract_z
_atom_site_B_iso_or_equiv
_atom_site_occupancy
_atom_site_attached_hydrogens
Y1 Y3+ 4 i 0.1470(4) 0 0.136(3) . 1. 0
I1 I1- 4 i 0.1707(3) 0 0.6676(2) . 1. 0
C1 C2- 4 i 0.42366 0 0.0306 0.03(8) 1. 0
loop_
_atom_site_aniso_label
_atom_site_aniso_type_symbol
_atom_site_aniso_U_11
_atom_site_aniso_U_22
_atom_site_aniso_U_33
_atom_site_aniso_U_12
_atom_site_aniso_U_13
_atom_site_aniso_U_23
Y1 Y3+ 0.0321(22) 0.0148(12) 0.0168(22) 0 -0.00075(18) 0
I1 I1- 0.0179(10) 0.0118(7) 0.0135(12) 0 0.00003(9) 0
#End of TTdata_400298-ICSD