
#(C) 2019 by FIZ Karlsruhe - Leibniz Institute for Information Infrastructure.  All rights reserved.
data_404168-ICSD
_database_code_ICSD 404168
_audit_creation_date 1998-06-26
_audit_update_record 2011-02-01
_chemical_name_systematic 'Lanthanum bromide carbide boride (9/5/6/3)'
_chemical_formula_structural 'La9 Br5 (C B C)3'
_chemical_formula_sum 'C6 B3 Br5 La9'
_chemical_name_structure_type La9Br5(CBC)3
_exptl_crystal_density_diffrn 5.76
_publ_section_title 'La9 Br5 (C B C)3: ein neuer Supraleiter'
loop_
_citation_id
_citation_journal_full
_citation_year
_citation_journal_volume
_citation_page_first
_citation_page_last
_citation_journal_id_ASTM
primary 'Angewandte Chemie' 1996 108 1805 1807 ANCEAD
loop_
_publ_author_name
'Mattausch, H.J.'
'Simon, A.'
'Felser, C.'
'Dronskowski, R.'
_cell_length_a 33.193(20)
_cell_length_b 3.853(1)
_cell_length_c 7.906(3)
_cell_angle_alpha 90.
_cell_angle_beta 90.
_cell_angle_gamma 90.
_cell_volume 1011.12
_cell_formula_units_Z 2
_symmetry_space_group_name_H-M 'P m m n Z'
_symmetry_Int_Tables_number 59
_refine_ls_R_factor_all 0.0634
loop_
_symmetry_equiv_pos_site_id
_symmetry_equiv_pos_as_xyz
1 'x+1/2, y+1/2, -z'
2 '-x, y+1/2, -z'
3 'x+1/2, -y, -z'
4 '-x, -y, -z'
5 '-x+1/2, -y+1/2, z'
6 'x, -y+1/2, z'
7 '-x+1/2, y, z'
8 'x, y, z'
loop_
_atom_type_symbol
_atom_type_oxidation_number
La3+ 3
Br1- -1
C3- -3
B1- -1.33
loop_
_atom_site_label
_atom_site_type_symbol
_atom_site_symmetry_multiplicity
_atom_site_Wyckoff_symbol
_atom_site_fract_x
_atom_site_fract_y
_atom_site_fract_z
_atom_site_B_iso_or_equiv
_atom_site_occupancy
_atom_site_attached_hydrogens
La1 La3+ 4 f 0.50933(4) 0.25 0.1973(2) . 1. 0
La2 La3+ 2 a 0.25 0.25 0.5464(3) . 1. 0
La3 La3+ 4 f 0.59591(4) 0.25 0.9113(2) . 1. 0
La4 La3+ 4 f 0.30544(4) 0.25 0.9543(2) . 1. 0
La5 La3+ 4 f 0.63304(4) 0.25 0.3503(2) . 1. 0
Br1 Br1- 4 f 0.54808(7) 0.25 0.5728(3) . 1. 0
Br2 Br1- 4 f 0.34801(7) 0.25 0.3276(3) . 1. 0
Br3 Br1- 2 b 0.75 0.25 0.7858(5) . 1. 0
C1 C3- 4 f 0.6253(7) -.25 1.1375(30) 0.009(5) 1. 0
C2 C3- 4 f 0.2940(7) -.25 0.7259(29) 0.010(5) 1. 0
C3 C3- 4 f 0.4566(7) 0.25 -.0237(31) 0.010(5) 1. 0
B1 B1- 4 f 0.5796(10) -.25 0.1436(43) 0.024(7) 1. 0
B2 B1- 2 b 0.25 -.25 0.7738(44) 0.002(7) 1. 0
loop_
_atom_site_aniso_label
_atom_site_aniso_type_symbol
_atom_site_aniso_U_11
_atom_site_aniso_U_22
_atom_site_aniso_U_33
_atom_site_aniso_U_12
_atom_site_aniso_U_13
_atom_site_aniso_U_23
La1 La3+ 0.0101(7) 0.0092(7) 0.0060(7) 0 -.0006(5) 0
La2 La3+ 0.0203(11) 0.0110(11) 0.0073(10) 0 0 0
La3 La3+ 0.0083(7) 0.0091(7) 0.0077(7) 0 -.0004(5) 0
La4 La3+ 0.0075(7) 0.0078(7) 0.0067(7) 0 0.0000(5) 0
La5 La3+ 0.0110(7) 0.0096(7) 0.0074(7) 0 0.0019(6) 0
Br1 Br1- 0.0137(12) 0.0205(13) 0.0107(12) 0 -.0007(9) 0
Br2 Br1- 0.0203(13) 0.0132(13) 0.0113(11) 0 -.0017(10) 0
Br3 Br1- 0.019(2) 0.014(2) 0.016(2) 0 0 0
#End of TTdata_404168-ICSD