
#(C) 2019 by FIZ Karlsruhe - Leibniz Institute for Information Infrastructure.  All rights reserved.
data_407549-ICSD
_database_code_ICSD 407549
_audit_creation_date 2003-10-01
_chemical_name_systematic 'Rhodium indium (1/3)'
_chemical_formula_structural 'Rh In3'
_chemical_formula_sum 'In3 Rh1'
_chemical_name_structure_type CoGa3
_exptl_crystal_density_diffrn 8.53
_publ_section_title
'Structure, chemical bonding and properties of Co In3, Rh In3 and Ir In3'
loop_
_citation_id
_citation_journal_full
_citation_year
_citation_journal_volume
_citation_page_first
_citation_page_last
_citation_journal_id_ASTM
primary 'Zeitschrift fuer Anorganische und Allgemeine Chemie (1950) (DE)' 1998
624 244 250 ZAACAB
loop_
_publ_author_name
'Poettgen, R.'
'Hoffmann, R.D.'
'Kotzyba, G.'
_cell_length_a 6.9828(8)
_cell_length_b 6.9828(8)
_cell_length_c 7.1111(9)
_cell_angle_alpha 90.
_cell_angle_beta 90.
_cell_angle_gamma 90.
_cell_volume 346.73
_cell_formula_units_Z 4
_symmetry_space_group_name_H-M 'P 42/m n m'
_symmetry_Int_Tables_number 136
_refine_ls_R_factor_all 0.0398
loop_
_symmetry_equiv_pos_site_id
_symmetry_equiv_pos_as_xyz
1 '-y+1/2, x+1/2, -z+1/2'
2 'y+1/2, -x+1/2, -z+1/2'
3 'y, x, -z'
4 '-y, -x, -z'
5 'y+1/2, -x+1/2, z+1/2'
6 '-y+1/2, x+1/2, z+1/2'
7 '-y, -x, z'
8 'y, x, z'
9 'x+1/2, -y+1/2, -z+1/2'
10 '-x+1/2, y+1/2, -z+1/2'
11 'x, y, -z'
12 '-x, -y, -z'
13 '-x+1/2, y+1/2, z+1/2'
14 'x+1/2, -y+1/2, z+1/2'
15 '-x, -y, z'
16 'x, y, z'
loop_
_atom_type_symbol
_atom_type_oxidation_number
Rh0+ 0
In0+ 0
loop_
_atom_site_label
_atom_site_type_symbol
_atom_site_symmetry_multiplicity
_atom_site_Wyckoff_symbol
_atom_site_fract_x
_atom_site_fract_y
_atom_site_fract_z
_atom_site_B_iso_or_equiv
_atom_site_occupancy
_atom_site_attached_hydrogens
Rh1 Rh0+ 4 f 0.34634(6) 0.34634(6) 0 . 1. 0
In1 In0+ 4 c 0 0.5 0 . 1. 0
In2 In0+ 8 j 0.15171(5) 0.15171(5) 0.25488(7) . 1. 0
loop_
_atom_site_aniso_label
_atom_site_aniso_type_symbol
_atom_site_aniso_U_11
_atom_site_aniso_U_22
_atom_site_aniso_U_33
_atom_site_aniso_U_12
_atom_site_aniso_U_13
_atom_site_aniso_U_23
Rh1 Rh0+ 0.0045(2) 0.0045(2) 0.0063(2) 0.0002(2) 0 0
In1 In0+ 0.0081(3) 0.0225(3) 0.0175(3) 0.0082(2) 0 0
In2 In0+ 0.0142(2) 0.0142(2) 0.0189(2) 0.0036(2) 0.00911(13) 0.00911(13)
#End of TTdata_407549-ICSD