
#(C) 2019 by FIZ Karlsruhe - Leibniz Institute for Information Infrastructure.  All rights reserved.
data_40780-ICSD
_database_code_ICSD 40780
_audit_creation_date 2000-07-15
_chemical_name_systematic 'Potassium iron(III) selenide'
_chemical_formula_structural 'K Fe Se2'
_chemical_formula_sum 'Fe1 K1 Se2'
_chemical_name_structure_type KFeS2
_exptl_crystal_density_diffrn 3.77
_publ_section_title

;
The antiferromagnetic structures of K Fe S2, Rb Fe S2, K Fe Se2, and Rb Fe Se2
and the correlation between magnetic moments and crystal field calculations
;
loop_
_citation_id
_citation_journal_full
_citation_year
_citation_journal_volume
_citation_page_first
_citation_page_last
_citation_journal_id_ASTM
primary 'Journal of Solid State Chemistry' 1987 70 262 270 JSSCBI
loop_
_publ_author_name
'Bronger, W.'
'Kyas, A.'
'Muller, P.'
_cell_length_a 7.342(2)
_cell_length_b 11.746(2)
_cell_length_c 5.629(1)
_cell_angle_alpha 90.
_cell_angle_beta 113.52(2)
_cell_angle_gamma 90.
_cell_volume 445.11
_cell_formula_units_Z 4
_symmetry_space_group_name_H-M 'C 1 2/c 1'
_symmetry_Int_Tables_number 15
_refine_ls_R_factor_all 0.075
loop_
_symmetry_equiv_pos_site_id
_symmetry_equiv_pos_as_xyz
1 'x, -y, z+1/2'
2 '-x, -y, -z'
3 '-x, y, -z+1/2'
4 'x, y, z'
5 'x+1/2, -y+1/2, z+1/2'
6 '-x+1/2, -y+1/2, -z'
7 '-x+1/2, y+1/2, -z+1/2'
8 'x+1/2, y+1/2, z'
loop_
_atom_type_symbol
_atom_type_oxidation_number
Fe3+ 3
K1+ 1
Se2- -2
loop_
_atom_site_label
_atom_site_type_symbol
_atom_site_symmetry_multiplicity
_atom_site_Wyckoff_symbol
_atom_site_fract_x
_atom_site_fract_y
_atom_site_fract_z
_atom_site_B_iso_or_equiv
_atom_site_occupancy
_atom_site_attached_hydrogens
Fe1 Fe3+ 4 e 0 0.9969(6) 0.25 . 1. 0
K1 K1+ 4 e 0 0.3608(10) 0.25 . 1. 0
Se1 Se2- 8 f 0.2012(5) 0.1136(3) 0.1099(6) . 1. 0
loop_
_atom_site_aniso_label
_atom_site_aniso_type_symbol
_atom_site_aniso_U_11
_atom_site_aniso_U_22
_atom_site_aniso_U_33
_atom_site_aniso_U_12
_atom_site_aniso_U_13
_atom_site_aniso_U_23
Fe1 Fe3+ 0.013(2) 0.015(3) 0.021(2) 0 0.007(2) 0
K1 K1+ 0.038(5) 0.024(6) 0.034(5) 0 0.014(4) 0
Se1 Se2- 0.025(1) 0.024(1) 0.0219(9) -.010(2) 0.0113(7) -.003(2)
#End of TTdata_40780-ICSD