
#(C) 2019 by FIZ Karlsruhe - Leibniz Institute for Information Infrastructure.  All rights reserved.
data_410520-ICSD
_database_code_ICSD 410520
_audit_creation_date 1999-06-02
_audit_update_record 2012-02-01
_chemical_name_systematic 'Barium silver silicide (4/2/6)'
_chemical_formula_structural 'Ba4 Ag2 Si6'
_chemical_formula_sum 'Ag2 Ba4 Si6'
_chemical_name_structure_type Ba4Li2Si6
_exptl_crystal_density_diffrn 4.91
_cell_measurement_temperature 297.
_publ_section_title

;
New examples for the unexpected stability of the 10pi electron Hueckel arene
(Si6)10-
;
loop_
_citation_id
_citation_journal_full
_citation_year
_citation_journal_volume
_citation_page_first
_citation_page_last
_citation_journal_id_ASTM
primary 'Zeitschrift fuer Anorganische und Allgemeine Chemie (1950) (DE)' 1999
625 285 293 ZAACAB
loop_
_publ_author_name
'Cardoso Gil, R.H.'
'Carrillo Cabrera, W.'
'Schultheiss, M.'
'Peters, K.'
'von Schnering, H.G.'
'Grin', Yu. (Hrin', Yu.'
' Grin, Yu.'
' Hrin, Yu.)'
_cell_length_a 8.613(1)
_cell_length_b 14.927(1)
_cell_length_c 19.6390(10)
_cell_angle_alpha 90.
_cell_angle_beta 90.
_cell_angle_gamma 90.
_cell_volume 2524.91
_cell_formula_units_Z 8
_symmetry_space_group_name_H-M 'F d d d Z'
_symmetry_Int_Tables_number 70
_refine_ls_R_factor_all 0.049
loop_
_symmetry_equiv_pos_site_id
_symmetry_equiv_pos_as_xyz
1 'x+3/4, y+3/4, -z'
2 'x+3/4, -y, z+3/4'
3 '-x, y+3/4, z+3/4'
4 '-x, -y, -z'
5 '-x+1/4, -y+1/4, z'
6 '-x+1/4, y, -z+1/4'
7 'x, -y+1/4, -z+1/4'
8 'x, y, z'
9 'x+3/4, y+1/4, -z+1/2'
10 'x+3/4, -y+1/2, z+1/4'
11 '-x, y+1/4, z+1/4'
12 '-x, -y+1/2, -z+1/2'
13 '-x+1/4, -y+3/4, z+1/2'
14 '-x+1/4, y+1/2, -z+3/4'
15 'x, -y+3/4, -z+3/4'
16 'x, y+1/2, z+1/2'
17 'x+1/4, y+3/4, -z+1/2'
18 'x+1/4, -y, z+1/4'
19 '-x+1/2, y+3/4, z+1/4'
20 '-x+1/2, -y, -z+1/2'
21 '-x+3/4, -y+1/4, z+1/2'
22 '-x+3/4, y, -z+3/4'
23 'x+1/2, -y+1/4, -z+3/4'
24 'x+1/2, y, z+1/2'
25 'x+1/4, y+1/4, -z'
26 'x+1/4, -y+1/2, z+3/4'
27 '-x+1/2, y+1/4, z+3/4'
28 '-x+1/2, -y+1/2, -z'
29 '-x+3/4, -y+3/4, z'
30 '-x+3/4, y+1/2, -z+1/4'
31 'x+1/2, -y+3/4, -z+1/4'
32 'x+1/2, y+1/2, z'
loop_
_atom_type_symbol
_atom_type_oxidation_number
Ba2+ 2
Ag1+ 1
Si1- -1.67
loop_
_atom_site_label
_atom_site_type_symbol
_atom_site_symmetry_multiplicity
_atom_site_Wyckoff_symbol
_atom_site_fract_x
_atom_site_fract_y
_atom_site_fract_z
_atom_site_B_iso_or_equiv
_atom_site_occupancy
_atom_site_attached_hydrogens
Ba1 Ba2+ 16 g 0.125 0.125 0.25021(2) . 1. 0
Ba2 Ba2+ 16 g 0.125 0.125 0.74945(2) . 1. 0
Ag1 Ag1+ 16 f 0.125 0.45811(6) 0.125 . 1. 0
Si1 Si1- 16 f 0.125 0.28435(22) 0.125 . 1. 0
Si2 Si1- 32 h 0.36413(22) 0.20498(17) 0.12781(11) . 1. 0
loop_
_atom_site_aniso_label
_atom_site_aniso_type_symbol
_atom_site_aniso_U_11
_atom_site_aniso_U_22
_atom_site_aniso_U_33
_atom_site_aniso_U_12
_atom_site_aniso_U_13
_atom_site_aniso_U_23
Ba1 Ba2+ 0.01882(32) 0.01854(33) 0.01689(32) -.00425(62) 0 0
Ba2 Ba2+ 0.01932(32) 0.01857(32) 0.01827(32) -.00413(63) 0 0
Ag1 Ag1+ 0.01936(31) 0.01903(32) 0.02052(32) 0 -.00163(59) 0
Si1 Si1- 0.0207(12) 0.0172(12) 0.0247(13) 0 0.0058(23) 0
Si2 Si1- 0.01601(83) 0.01678(97) 0.0237(10) -.00246(54) -.0003(12) 0.00026(71)
#End of TTdata_410520-ICSD