
#(C) 2019 by FIZ Karlsruhe - Leibniz Institute for Information Infrastructure.  All rights reserved.
data_41204-ICSD
_database_code_ICSD 41204
_audit_creation_date 1999-11-30
_audit_update_record 2007-08-01
_chemical_name_systematic 'Potassium catena-bismuthate 0.25-hydrate'
_chemical_formula_structural 'K (Bi O3) (H2 O)0.25'
_chemical_formula_sum 'H0.5 Bi1 K1 O3.25'
_exptl_crystal_density_diffrn 5.93
_publ_section_title
'Synthese et caracterisation de nouvelles phases du diagramme (K ou Na)-Bi-O'
loop_
_citation_id
_citation_journal_full
_citation_year
_citation_journal_volume
_citation_page_first
_citation_page_last
_citation_journal_id_ASTM
primary 'Materials Research Bulletin' 1982 17 1235 1243 MRBUAC
loop_
_publ_author_name
'Trehoux, J.'
'Abraham, F.'
'Thomas, D.'
_cell_length_a 10.035(15)
_cell_length_b 10.035
_cell_length_c 10.035
_cell_angle_alpha 90.
_cell_angle_beta 90.
_cell_angle_gamma 90.
_cell_volume 1010.54
_cell_formula_units_Z 12
_symmetry_space_group_name_H-M 'P n -3 S'
_symmetry_Int_Tables_number 201
_refine_ls_R_factor_all 0.08
loop_
_symmetry_equiv_pos_site_id
_symmetry_equiv_pos_as_xyz
1 '-z+1/2, x+1/2, y+1/2'
2 'z+1/2, x+1/2, -y+1/2'
3 'z+1/2, -x+1/2, y+1/2'
4 '-z+1/2, -x+1/2, -y+1/2'
5 'y+1/2, -z+1/2, x+1/2'
6 '-y+1/2, z+1/2, x+1/2'
7 'y+1/2, z+1/2, -x+1/2'
8 '-y+1/2, -z+1/2, -x+1/2'
9 'x+1/2, y+1/2, -z+1/2'
10 'x+1/2, -y+1/2, z+1/2'
11 '-x+1/2, y+1/2, z+1/2'
12 '-x+1/2, -y+1/2, -z+1/2'
13 'z, -x, -y'
14 '-z, -x, y'
15 '-z, x, -y'
16 'z, x, y'
17 '-y, z, -x'
18 'y, -z, -x'
19 '-y, -z, x'
20 'y, z, x'
21 '-x, -y, z'
22 '-x, y, -z'
23 'x, -y, -z'
24 'x, y, z'
loop_
_atom_type_symbol
_atom_type_oxidation_number
K1+ 1
Bi5+ 5
O2- -2
H1+ 1
loop_
_atom_site_label
_atom_site_type_symbol
_atom_site_symmetry_multiplicity
_atom_site_Wyckoff_symbol
_atom_site_fract_x
_atom_site_fract_y
_atom_site_fract_z
_atom_site_B_iso_or_equiv
_atom_site_occupancy
_atom_site_attached_hydrogens
K1 K1+ 4 c 0.75 0.75 0.75 . 1. 0
K2 K1+ 8 e 0.14 0.14 0.14 . 1. 0
Bi1 Bi5+ 12 g 0.333 0.5 0 . 1. 0
O1 O2- 12 f 0.365 0 0 . 1. 0
O2 O2- 24 h 0.29 0 0.33 . 1. 0
#End of TTdata_41204-ICSD
