
#(C) 2019 by FIZ Karlsruhe - Leibniz Institute for Information Infrastructure.  All rights reserved.
data_414303-ICSD
_database_code_ICSD 414303
_audit_creation_date 2005-10-01
_audit_update_record 2014-08-01
_chemical_name_systematic 'Gallium iridium (9/2)'
_chemical_formula_structural 'Ga9 Ir2'
_chemical_formula_sum 'Ga9 Ir2'
_chemical_name_structure_type Al9Co2
_exptl_crystal_density_diffrn 9.29
_publ_section_title 'The Co2 Al9 structure type revisited'
loop_
_citation_id
_citation_journal_full
_citation_year
_citation_journal_volume
_citation_page_first
_citation_page_last
_citation_journal_id_ASTM
primary 'Zeitschrift fuer Anorganische und Allgemeine Chemie (1950) (DE)' 2005
631 534 541 ZAACAB
loop_
_publ_author_name
'Bostroem, M.'
'Rosner, H.'
'Prots', Yu.M. (Prots, Yu.M.)'
'Burkhardt, U.'
'Grin', Yu. (Hrin', Yu.'
' Grin, Yu.'
' Hrin, Yu.)'
_cell_length_a 6.4329(2)
_cell_length_b 6.4099(2)
_cell_length_c 8.8068(4)
_cell_angle_alpha 90
_cell_angle_beta 93.464(4)
_cell_angle_gamma 90
_cell_volume 362.48
_cell_formula_units_Z 2
_symmetry_space_group_name_H-M 'P 1 c 1'
_symmetry_Int_Tables_number 7
_refine_ls_R_factor_all 0.0348
loop_
_symmetry_equiv_pos_site_id
_symmetry_equiv_pos_as_xyz
1 'x, -y, z+1/2'
2 'x, y, z'
loop_
_atom_type_symbol
_atom_type_oxidation_number
Ir0+ 0
Ga0+ 0
loop_
_atom_site_label
_atom_site_type_symbol
_atom_site_symmetry_multiplicity
_atom_site_Wyckoff_symbol
_atom_site_fract_x
_atom_site_fract_y
_atom_site_fract_z
_atom_site_B_iso_or_equiv
_atom_site_occupancy
_atom_site_attached_hydrogens
Ir1 Ir0+ 2 a 0.7393 -0.12479(14) -0.8317 0.0059(3) 1 0
Ir2 Ir0+ 2 a -0.74005(12) -0.37764(13) -0.16833(9) 0.0051(3) 1 0
Ga1 Ga0+ 2 a 0.5997(6) -0.7621(5) -0.7736(5) 0.0109(9) 1 0
Ga2 Ga0+ 2 a -0.6004(6) -0.7365(5) -0.2325(5) 0.0111(9) 1 0
Ga3 Ga0+ 2 a 0.6130(6) -0.5544(5) -0.5001(5) 0.0113(9) 1 0
Ga4 Ga0+ 2 a -0.6018(6) -0.9455(5) -0.5076(5) 0.0127(9) 1 0
Ga5 Ga0+ 2 a 0.8929(6) -0.4715(5) -0.7209(5) 0.0121(8) 1 0
Ga6 Ga0+ 2 a -0.9091(6) -0.0434(5) -0.2687(5) 0.0145(9) 1 0
Ga7 Ga0+ 2 a 0.7979(6) -0.1384(5) -0.5432(5) 0.0143(10) 1 0
Ga8 Ga0+ 2 a -0.7842(6) -0.3427(6) -0.4622(5) 0.0157(10) 1 0
Ga9 Ga0+ 2 a -0.9701(6) -0.2585(6) -0.9728(5) 0.0272(11) 1 0
loop_
_atom_site_aniso_label
_atom_site_aniso_type_symbol
_atom_site_aniso_U_11
_atom_site_aniso_U_22
_atom_site_aniso_U_33
_atom_site_aniso_U_12
_atom_site_aniso_U_13
_atom_site_aniso_U_23
Ir1 Ir0+ 0.0067(4) 0.0051(4) 0.0062(7) -0.0002(3) 0.0012(4) -0.0007(3)
Ir2 Ir0+ 0.0051(4) 0.0052(4) 0.0051(7) 0.0001(3) 0.0003(4) 0.0004(3)
Ga1 Ga0+ 0.0132(15) 0.0073(12) 0.0134(18) 0.0004(11) 0.0090(14) -0.0021(12)
Ga2 Ga0+ 0.0097(14) 0.0091(12) 0.0143(18) 0.0037(10) -0.0022(13) -0.0026(12)
Ga3 Ga0+ 0.0136(16) 0.0105(13) 0.0097(17) -0.0007(11) -0.0012(13) 0.0017(12)
Ga4 Ga0+ 0.0120(15) 0.0076(12) 0.0176(19) -0.0020(11) -0.0060(13) 0.0024(12)
Ga5 Ga0+ 0.0111(13) 0.0104(12) 0.0146(17) 0.0017(10) -0.0016(12) 0.0003(10)
Ga6 Ga0+ 0.0116(14) 0.0130(12) 0.0188(18) 0.0062(10) -0.0007(12) 0.0030(11)
Ga7 Ga0+ 0.0208(19) 0.0136(13) 0.0082(19) 0.0028(11) -0.0022(13) -0.0026(11)
Ga8 Ga0+ 0.0238(19) 0.0144(12) 0.0095(19) -0.0019(13) 0.0047(14) -0.0043(12)
Ga9 Ga0+ 0.028(2) 0.0192(11) 0.038(3) -0.0026(12) 0.0260(17) -0.0103(14)
#End of TTdata_414303-ICSD
