
#(C) 2019 by FIZ Karlsruhe - Leibniz Institute for Information Infrastructure.  All rights reserved.
data_42118-ICSD
_database_code_ICSD 42118
_audit_creation_date 2000-07-15
_audit_update_record 2017-02-01
_chemical_name_systematic 'Copper selenide (1/2)'
_chemical_formula_structural 'Cu Se2'
_chemical_formula_sum 'Cu1 Se2'
_chemical_name_structure_type Marcasite-FeS2(oP6)
_chemical_name_mineral Petricekite
_exptl_crystal_density_diffrn 6.31
_publ_section_title

;
Compounds with the marcasite type crystal structure. IX. Structural data for
Fe As2, Fe Se2, Ni As2, Ni Sb2, and Cu S2
;
loop_
_citation_id
_citation_journal_full
_citation_year
_citation_journal_volume
_citation_page_first
_citation_page_last
_citation_journal_id_ASTM
primary 'Acta Chemica Scandinavica ' 1974 28 996 1000 ACSAA4
loop_
_publ_author_name
'Kjekshus, A.'
'Rakke, T.'
'Andresen, A.F.'
_cell_length_a 5.0226(7)
_cell_length_b 6.1957(7)
_cell_length_c 3.7468(6)
_cell_angle_alpha 90.
_cell_angle_beta 90.
_cell_angle_gamma 90.
_cell_volume 116.59
_cell_formula_units_Z 2
_symmetry_space_group_name_H-M 'P n n m'
_symmetry_Int_Tables_number 58
_refine_ls_R_factor_all 0.035
loop_
_symmetry_equiv_pos_site_id
_symmetry_equiv_pos_as_xyz
1 'x+1/2, -y+1/2, z+1/2'
2 '-x+1/2, y+1/2, z+1/2'
3 'x, y, -z'
4 '-x, -y, -z'
5 '-x+1/2, y+1/2, -z+1/2'
6 'x+1/2, -y+1/2, -z+1/2'
7 '-x, -y, z'
8 'x, y, z'
loop_
_atom_type_symbol
_atom_type_oxidation_number
Cu2+ 2
Se1- -1
loop_
_atom_site_label
_atom_site_type_symbol
_atom_site_symmetry_multiplicity
_atom_site_Wyckoff_symbol
_atom_site_fract_x
_atom_site_fract_y
_atom_site_fract_z
_atom_site_B_iso_or_equiv
_atom_site_occupancy
_atom_site_attached_hydrogens
Cu1 Cu2+ 2 a 0 0 0 . 1. 0
Se1 Se1- 4 g 0.1835(5) 0.3849(4) 0 . 1. 0
#End of TTdata_42118-ICSD