
#(C) 2019 by FIZ Karlsruhe - Leibniz Institute for Information Infrastructure.  All rights reserved.
data_423220-ICSD
_database_code_ICSD 423220
_audit_creation_date 2012-02-01
_audit_update_record 2013-02-01
_chemical_name_systematic 'Yttrium technetium (1/2)'
_chemical_formula_structural 'Y Tc2'
_chemical_formula_sum 'Tc2 Y1'
_chemical_name_structure_type Laves(2H)-MgZn2
_exptl_crystal_density_diffrn 8.62
_publ_section_title 'Nuclear quadrupole moment of the (99)Tc ground state'
loop_
_citation_id
_citation_journal_full
_citation_year
_citation_journal_volume
_citation_page_first
_citation_page_last
_citation_journal_id_ASTM
primary 'Physical Review B: Condensed Matter and Materials Physics' 2008 77
195118-1 195118-5 PRBMDO
loop_
_publ_author_name
'Errico, L.'
'Darriba, G.'
'Renteria, M.'
'Tang Zheng Ning'
'Emmerich, H.'
'Cottenier, S.'
_cell_length_a 5.373
_cell_length_b 5.373
_cell_length_c 8.847
_cell_angle_alpha 90
_cell_angle_beta 90
_cell_angle_gamma 120
_cell_volume 221.19
_cell_formula_units_Z 4
_symmetry_space_group_name_H-M 'P 63/m m c'
_symmetry_Int_Tables_number 194
loop_
_symmetry_equiv_pos_site_id
_symmetry_equiv_pos_as_xyz
1 'x, x-y, -z+1/2'
2 '-x+y, y, -z+1/2'
3 '-y, -x, -z+1/2'
4 '-x+y, -x, -z+1/2'
5 '-y, x-y, -z+1/2'
6 'x, y, -z+1/2'
7 '-x, -x+y, z+1/2'
8 'x-y, -y, z+1/2'
9 'y, x, z+1/2'
10 'x-y, x, z+1/2'
11 'y, -x+y, z+1/2'
12 '-x, -y, z+1/2'
13 '-x, -x+y, -z'
14 'x-y, -y, -z'
15 'y, x, -z'
16 'x-y, x, -z'
17 'y, -x+y, -z'
18 '-x, -y, -z'
19 'x, x-y, z'
20 '-x+y, y, z'
21 '-y, -x, z'
22 '-x+y, -x, z'
23 '-y, x-y, z'
24 'x, y, z'
loop_
_atom_type_symbol
_atom_type_oxidation_number
Y0+ 0
Tc0+ 0
loop_
_atom_site_label
_atom_site_type_symbol
_atom_site_symmetry_multiplicity
_atom_site_Wyckoff_symbol
_atom_site_fract_x
_atom_site_fract_y
_atom_site_fract_z
_atom_site_B_iso_or_equiv
_atom_site_occupancy
_atom_site_attached_hydrogens
Y1 Y0+ 4 f 0.3333 0.6667 0.06358 . 1 0
Tc1 Tc0+ 2 a 0 0 0 . 1 0
Tc2 Tc0+ 6 h 0.8292 0.6584 0.25 . 1 0
#End of TTdata_423220-ICSD