
#(C) 2019 by FIZ Karlsruhe - Leibniz Institute for Information Infrastructure.  All rights reserved.
data_427113-ICSD
_database_code_ICSD 427113
_audit_creation_date 2014-08-01
_chemical_name_systematic 'Yttrium palladium silicide (1/2/2)'
_chemical_formula_structural 'Y Pd2 Si2'
_chemical_formula_sum 'Pd2 Si2 Y1'
_chemical_name_structure_type ThCr2Si2
_exptl_crystal_density_diffrn 7.08
_cell_measurement_temperature 293.
_publ_section_title

;
The silicides Y T2 Si2 (T = Co, Ni, Cu, Ru, Rh, Pd). A systematic study by 89Y
solid-state NMR spectroscopy
;
loop_
_citation_id
_citation_journal_full
_citation_year
_citation_journal_volume
_citation_page_first
_citation_page_last
_citation_journal_id_ASTM
primary 'Zeitschrift fuer Naturforschung, B: A Journal of Chemical Sciences'
2014 69 305 312 ZNBSEN
loop_
_publ_author_name
'Hoeting, Christoph'
'Eckert, Hellmut'
'Matar, Samir F.'
'Rodewald, Ute C.'
'Poettgen, Rainer'
_cell_length_a 4.1277(3)
_cell_length_b 4.1277(3)
_cell_length_c 9.8574(9)
_cell_angle_alpha 90
_cell_angle_beta 90
_cell_angle_gamma 90
_cell_volume 167.94
_cell_formula_units_Z 2
_symmetry_space_group_name_H-M 'I 4/m m m'
_symmetry_Int_Tables_number 139
_refine_ls_R_factor_all 0.0281
loop_
_symmetry_equiv_pos_site_id
_symmetry_equiv_pos_as_xyz
1 'y, x, -z'
2 '-y, -x, -z'
3 '-y, x, -z'
4 'y, -x, -z'
5 '-x, y, -z'
6 'x, -y, -z'
7 'x, y, -z'
8 '-x, -y, -z'
9 '-y, -x, z'
10 'y, x, z'
11 'y, -x, z'
12 '-y, x, z'
13 'x, -y, z'
14 '-x, y, z'
15 '-x, -y, z'
16 'x, y, z'
17 'y+1/2, x+1/2, -z+1/2'
18 '-y+1/2, -x+1/2, -z+1/2'
19 '-y+1/2, x+1/2, -z+1/2'
20 'y+1/2, -x+1/2, -z+1/2'
21 '-x+1/2, y+1/2, -z+1/2'
22 'x+1/2, -y+1/2, -z+1/2'
23 'x+1/2, y+1/2, -z+1/2'
24 '-x+1/2, -y+1/2, -z+1/2'
25 '-y+1/2, -x+1/2, z+1/2'
26 'y+1/2, x+1/2, z+1/2'
27 'y+1/2, -x+1/2, z+1/2'
28 '-y+1/2, x+1/2, z+1/2'
29 'x+1/2, -y+1/2, z+1/2'
30 '-x+1/2, y+1/2, z+1/2'
31 '-x+1/2, -y+1/2, z+1/2'
32 'x+1/2, y+1/2, z+1/2'
loop_
_atom_type_symbol
_atom_type_oxidation_number
Pd0+ 0
Y0+ 0
Si0+ 0
loop_
_atom_site_label
_atom_site_type_symbol
_atom_site_symmetry_multiplicity
_atom_site_Wyckoff_symbol
_atom_site_fract_x
_atom_site_fract_y
_atom_site_fract_z
_atom_site_B_iso_or_equiv
_atom_site_occupancy
_atom_site_attached_hydrogens
Pd1 Pd0+ 4 d 0 0.5 0.25 0.01554(14) 1 0
Y1 Y0+ 2 a 0 0 0 0.0148(3) 1 0
Si1 Si0+ 4 e 0 0 0.3827(3) 0.0160(6) 1 0
loop_
_atom_site_aniso_label
_atom_site_aniso_type_symbol
_atom_site_aniso_U_11
_atom_site_aniso_U_22
_atom_site_aniso_U_33
_atom_site_aniso_U_12
_atom_site_aniso_U_13
_atom_site_aniso_U_23
Pd1 Pd0+ 0.0154(2) 0.0154(2) 0.0157(3) 0 0 0
Y1 Y0+ 0.0149(4) 0.0149(4) 0.0145(6) 0 0 0
Si1 Si0+ 0.0157(8) 0.0157(8) 0.0167(13) 0 0 0
#End of TTdata_427113-ICSD