
#(C) 2019 by FIZ Karlsruhe - Leibniz Institute for Information Infrastructure.  All rights reserved.
data_427253-ICSD
_database_code_ICSD 427253
_audit_creation_date 2015-02-01
_chemical_name_systematic 'Yttrium iridium silicide (1/1/1)'
_chemical_formula_structural 'Y Ir Si'
_chemical_formula_sum 'Ir1 Si1 Y1'
_chemical_name_structure_type TiNiSi-MgSrSi
_exptl_crystal_density_diffrn 9.72
_cell_measurement_temperature 293.
_publ_section_title

;
Equiatomic intermetallic compounds Y T X (T = Ni, Ir; X = Si, Ge, Sn, Pb): a
systematic study by (89)Y solid state NMR and (119)Sn Mâ€�ssbauer spectroscopy
;
loop_
_citation_id
_citation_journal_full
_citation_year
_citation_journal_volume
_citation_page_first
_citation_page_last
_citation_journal_id_ASTM
primary 'Dalton Transactions' 2014 43 7860 7867 DTARAF
loop_
_publ_author_name
'Hoeting, Christoph'
'Eckert, Hellmut'
'Haarmann, Frank'
'Winter, Florian'
'Poettgen, Rainer'
_cell_length_a 6.788(3)
_cell_length_b 4.183(1)
_cell_length_c 7.464(3)
_cell_angle_alpha 90
_cell_angle_beta 90
_cell_angle_gamma 90
_cell_volume 211.93
_cell_formula_units_Z 4
_symmetry_space_group_name_H-M 'P n m a'
_symmetry_Int_Tables_number 62
_refine_ls_R_factor_all 0.0181
loop_
_symmetry_equiv_pos_site_id
_symmetry_equiv_pos_as_xyz
1 'x+1/2, y, -z+1/2'
2 'x, -y+1/2, z'
3 '-x+1/2, y+1/2, z+1/2'
4 '-x, -y, -z'
5 '-x+1/2, -y, z+1/2'
6 '-x, y+1/2, -z'
7 'x+1/2, -y+1/2, -z+1/2'
8 'x, y, z'
loop_
_atom_type_symbol
_atom_type_oxidation_number
Ir0+ 0
Y0+ 0
Si0+ 0
loop_
_atom_site_label
_atom_site_type_symbol
_atom_site_symmetry_multiplicity
_atom_site_Wyckoff_symbol
_atom_site_fract_x
_atom_site_fract_y
_atom_site_fract_z
_atom_site_B_iso_or_equiv
_atom_site_occupancy
_atom_site_attached_hydrogens
Ir1 Ir0+ 4 c 0.15643(2) 0.25 0.06423(2) 0.00511(5) 1 0
Y1 Y0+ 4 c 0.00526(6) 0.25 0.68691(6) 0.00553(10) 1 0
Si1 Si0+ 4 c 0.2984(2) 0.25 0.3898(2) 0.0058(3) 1 0
loop_
_atom_site_aniso_label
_atom_site_aniso_type_symbol
_atom_site_aniso_U_11
_atom_site_aniso_U_22
_atom_site_aniso_U_33
_atom_site_aniso_U_12
_atom_site_aniso_U_13
_atom_site_aniso_U_23
Ir1 Ir0+ 0.00451(8) 0.00691(8) 0.00391(8) 0 0.00028(5) 0
Y1 Y0+ 0.00451(17) 0.00810(17) 0.00398(16) 0 -0.00059(12) 0
Si1 Si0+ 0.0048(5) 0.0061(5) 0.0066(5) 0 -0.0005(4) 0
#End of TTdata_427253-ICSD