
#(C) 2019 by FIZ Karlsruhe - Leibniz Institute for Information Infrastructure.  All rights reserved.
data_431419-ICSD
_database_code_ICSD 431419
_audit_creation_date 2018-02-01
_chemical_name_systematic 'Aluminium lanthanum rhodium (1/1/1)'
_chemical_formula_structural 'Al La Rh'
_chemical_formula_sum 'Al1 La1 Rh1'
_chemical_name_structure_type CeRhAl
_exptl_crystal_density_diffrn 7.1
_cell_measurement_temperature 293.
_publ_section_title
'LaRhAl, La3Rh3Al4, and Ce5Rh5Al6 as a new family of ternary aluminides'
loop_
_citation_id
_citation_journal_full
_citation_year
_citation_journal_volume
_citation_page_first
_citation_page_last
_citation_journal_id_ASTM
primary 'Russian Journal of Physical Chemistry A' 2017 91 252 254 RJPCBS
loop_
_publ_author_name
'Avzuragova, V.A.'
'Nesterenko, S.N.'
'Tursina, A.I.'
_cell_length_a 7.240(2)
_cell_length_b 4.2516(19)
_cell_length_c 16.224(8)
_cell_angle_alpha 90.
_cell_angle_beta 90.
_cell_angle_gamma 90.
_cell_volume 499.4
_cell_formula_units_Z 8
_symmetry_space_group_name_H-M 'P n m a'
_symmetry_Int_Tables_number 62
_refine_ls_R_factor_all 0.0536
loop_
_symmetry_equiv_pos_site_id
_symmetry_equiv_pos_as_xyz
1 'x+1/2, y, -z+1/2'
2 'x, -y+1/2, z'
3 '-x+1/2, y+1/2, z+1/2'
4 '-x, -y, -z'
5 '-x+1/2, -y, z+1/2'
6 '-x, y+1/2, -z'
7 'x+1/2, -y+1/2, -z+1/2'
8 'x, y, z'
loop_
_atom_type_symbol
_atom_type_oxidation_number
La0+ 0
Rh0+ 0
Al0+ 0
loop_
_atom_site_label
_atom_site_type_symbol
_atom_site_symmetry_multiplicity
_atom_site_Wyckoff_symbol
_atom_site_fract_x
_atom_site_fract_y
_atom_site_fract_z
_atom_site_B_iso_or_equiv
_atom_site_occupancy
_atom_site_attached_hydrogens
La1 La0+ 4 c 0.01953(18) 0.25 0.27984(8) 0.0091(3) 1 0
La2 La0+ 4 c 0.15521(19) 0.25 0.05983(8) 0.0099(3) 1 0
Rh1 Rh0+ 4 c 0.2148(3) 0.25 0.42852(11) 0.0091(4) 1 0
Rh2 Rh0+ 4 c 0.2727(3) 0.25 0.68139(13) 0.0153(5) 1 0
Al1 Al0+ 4 c 0.0065(10) 0.25 0.5606(4) 0.0083(13) 1 0
Al2 Al0+ 4 c 0.1557(10) 0.25 0.8532(4) 0.0100(13) 1 0
loop_
_atom_site_aniso_label
_atom_site_aniso_type_symbol
_atom_site_aniso_U_11
_atom_site_aniso_U_22
_atom_site_aniso_U_33
_atom_site_aniso_U_12
_atom_site_aniso_U_13
_atom_site_aniso_U_23
La1 La0+ 0.0093(6) 0.0104(6) 0.0076(5) 0. -0.0011(4) 0.
La2 La0+ 0.0101(6) 0.0110(7) 0.0087(6) 0. -0.0006(4) 0.
Rh1 Rh0+ 0.0110(8) 0.0074(9) 0.0090(8) 0. 0.0002(6) 0.
Rh2 Rh0+ 0.0182(10) 0.0131(10) 0.0144(9) 0. -0.0032(8) 0.
Al1 Al0+ 0.010(3) 0.004(3) 0.011(3) 0. 0.000(2) 0.
Al2 Al0+ 0.013(3) 0.009(3) 0.007(3) 0. 0.001(3) 0.
#End of TTdata_431419-ICSD