
#(C) 2019 by FIZ Karlsruhe - Leibniz Institute for Information Infrastructure.  All rights reserved.
data_43263-ICSD
_database_code_ICSD 43263
_audit_creation_date 2000-07-15
_audit_update_record 2008-02-01
_chemical_name_systematic 'Molybdenum arsenide (1/2)'
_chemical_formula_structural 'Mo As2'
_chemical_formula_sum 'As2 Mo1'
_chemical_name_structure_type MoAs2
_exptl_crystal_density_diffrn 8.11
_publ_section_title 'On the crystal structure of Mo As2'
loop_
_citation_id
_citation_journal_full
_citation_year
_citation_journal_volume
_citation_page_first
_citation_page_last
_citation_journal_id_ASTM
primary 'Acta Chemica Scandinavica ' 1964 18 1798 1800 ACSAA4
loop_
_publ_author_name
'Jensen, P.'
'Kjekshus, A.'
_cell_length_a 9.069(2)
_cell_length_b 3.2996(7)
_cell_length_c 7.717(2)
_cell_angle_alpha 90.
_cell_angle_beta 119.36(3)
_cell_angle_gamma 90.
_cell_volume 201.26
_cell_formula_units_Z 4
_symmetry_space_group_name_H-M 'C 1 2 1'
_symmetry_Int_Tables_number 5
loop_
_symmetry_equiv_pos_site_id
_symmetry_equiv_pos_as_xyz
1 '-x, y, -z'
2 'x, y, z'
3 '-x+1/2, y+1/2, -z'
4 'x+1/2, y+1/2, z'
loop_
_atom_type_symbol
_atom_type_oxidation_number
Mo0+ 0
As0+ 0
loop_
_atom_site_label
_atom_site_type_symbol
_atom_site_symmetry_multiplicity
_atom_site_Wyckoff_symbol
_atom_site_fract_x
_atom_site_fract_y
_atom_site_fract_z
_atom_site_B_iso_or_equiv
_atom_site_occupancy
_atom_site_attached_hydrogens
Mo1 Mo0+ 4 c 0.34 0.5 0.3 . 1. 0
As1 As0+ 4 c 0.09 0.49 0.39 . 1. 0
As2 As0+ 4 c 0.14 0.07 0.03 . 1. 0
#End of TTdata_43263-ICSD