
#(C) 2019 by FIZ Karlsruhe - Leibniz Institute for Information Infrastructure.  All rights reserved.
data_43662-ICSD
_database_code_ICSD 43662
_audit_creation_date 2000-07-15
_audit_update_record 2014-08-01
_chemical_name_systematic 'Rhenium boride (3/1)'
_chemical_formula_structural 'Re3 B'
_chemical_formula_sum 'B1 Re3'
_chemical_name_structure_type Re3B
_exptl_crystal_density_diffrn 19.36
_publ_section_title 'The crystal structure of Re3 B'
loop_
_citation_id
_citation_journal_full
_citation_year
_citation_journal_volume
_citation_page_first
_citation_page_last
_citation_journal_id_ASTM
primary 'Acta Chemica Scandinavica ' 1960 14 1001 1005 ACSAA4
loop_
_publ_author_name
'Aronsson, B.'
'Bacmann, M.'
'Rundqvist, S.'
_cell_length_a 2.890(1)
_cell_length_b 9.313(5)
_cell_length_c 7.258(4)
_cell_angle_alpha 90.
_cell_angle_beta 90.
_cell_angle_gamma 90.
_cell_volume 195.35
_cell_formula_units_Z 4
_symmetry_space_group_name_H-M 'C m c m'
_symmetry_Int_Tables_number 63
_refine_ls_R_factor_all 0.124
loop_
_symmetry_equiv_pos_site_id
_symmetry_equiv_pos_as_xyz
1 '-x, y, -z+1/2'
2 '-x, -y, z+1/2'
3 '-x, y, z'
4 '-x, -y, -z'
5 'x, -y, z+1/2'
6 'x, y, -z+1/2'
7 'x, -y, -z'
8 'x, y, z'
9 '-x+1/2, y+1/2, -z+1/2'
10 '-x+1/2, -y+1/2, z+1/2'
11 '-x+1/2, y+1/2, z'
12 '-x+1/2, -y+1/2, -z'
13 'x+1/2, -y+1/2, z+1/2'
14 'x+1/2, y+1/2, -z+1/2'
15 'x+1/2, -y+1/2, -z'
16 'x+1/2, y+1/2, z'
loop_
_atom_type_symbol
_atom_type_oxidation_number
Re0+ 0
B0+ 0
loop_
_atom_site_label
_atom_site_type_symbol
_atom_site_symmetry_multiplicity
_atom_site_Wyckoff_symbol
_atom_site_fract_x
_atom_site_fract_y
_atom_site_fract_z
_atom_site_B_iso_or_equiv
_atom_site_occupancy
_atom_site_attached_hydrogens
Re1 Re0+ 8 f 0 0.1345(3) 0.0620(3) 0.78 1. 0
Re2 Re0+ 4 c 0 0.4262(3) 0.25 0.78 1. 0
B1 B0+ 4 c 0 0.744 0.25 0.78 1. 0
#End of TTdata_43662-ICSD