
#(C) 2019 by FIZ Karlsruhe - Leibniz Institute for Information Infrastructure.  All rights reserved.
data_52898-ICSD
_database_code_ICSD 52898
_audit_creation_date 2003-04-01
_audit_update_record 2007-08-01
_chemical_name_systematic 'Cerium ruthenium silicide (1/3/2)'
_chemical_formula_structural 'Ce Ru3 Si2'
_chemical_formula_sum 'Ce1 Ru3 Si2'
_chemical_name_structure_type CaCu5
_exptl_crystal_density_diffrn 8.72
_publ_section_title 'Supraconductivite des composes TR - Ru3 Si2 (TR= La, Ce)'
loop_
_citation_id
_citation_journal_full
_citation_year
_citation_journal_volume
_citation_page_first
_citation_page_last
_citation_journal_id_ASTM
primary 'Annales de Chimie (Cachan, France)' 1984 9 979 985 ANCPAC
loop_
_publ_author_name
'Godart, C.'
'Gupta, L.C.'
'Parks, R.D.'
'Rauschwalbe, U.'
'Alheim, U.'
'Gottwick, U.'
'Lieke, W.'
'Steglich, F.'
_cell_length_a 5.555
_cell_length_b 5.555
_cell_length_c 3.56
_cell_angle_alpha 90.
_cell_angle_beta 90.
_cell_angle_gamma 120.
_cell_volume 95.14
_cell_formula_units_Z 1
_symmetry_space_group_name_H-M 'P 6/m m m'
_symmetry_Int_Tables_number 191
loop_
_symmetry_equiv_pos_site_id
_symmetry_equiv_pos_as_xyz
1 '-x, -x+y, -z'
2 'x-y, -y, -z'
3 'y, x, -z'
4 '-x+y, -x, -z'
5 '-y, x-y, -z'
6 'x, y, -z'
7 'x, x-y, -z'
8 '-x+y, y, -z'
9 '-y, -x, -z'
10 'x-y, x, -z'
11 'y, -x+y, -z'
12 '-x, -y, -z'
13 'x, x-y, z'
14 '-x+y, y, z'
15 '-y, -x, z'
16 'x-y, x, z'
17 'y, -x+y, z'
18 '-x, -y, z'
19 '-x, -x+y, z'
20 'x-y, -y, z'
21 'y, x, z'
22 '-x+y, -x, z'
23 '-y, x-y, z'
24 'x, y, z'
loop_
_atom_type_symbol
_atom_type_oxidation_number
Ce0+ 0
Ru0+ 0
Si0+ 0
loop_
_atom_site_label
_atom_site_type_symbol
_atom_site_symmetry_multiplicity
_atom_site_Wyckoff_symbol
_atom_site_fract_x
_atom_site_fract_y
_atom_site_fract_z
_atom_site_B_iso_or_equiv
_atom_site_occupancy
_atom_site_attached_hydrogens
Ce1 Ce0+ 1 a 0 0 0 . 1. 0
Ru1 Ru0+ 3 g 0.5 0 0.5 . 1. 0
Si1 Si0+ 2 c 0.3333 0.6667 0 . 1. 0
#End of TTdata_52898-ICSD