
#(C) 2019 by FIZ Karlsruhe - Leibniz Institute for Information Infrastructure.  All rights reserved.
data_58589-ICSD
_database_code_ICSD 58589
_audit_creation_date 2004-04-01
_audit_update_record 2007-04-01
_chemical_name_systematic 'Gold tin (5/1)'
_chemical_formula_structural 'Au5 Sn'
_chemical_formula_sum 'Au5 Sn1'
_exptl_crystal_density_diffrn 17.08
_publ_section_title 'An ordered stucture of Au5 Sn'
loop_
_citation_id
_citation_journal_full
_citation_year
_citation_journal_volume
_citation_page_first
_citation_page_last
_citation_journal_id_ASTM
primary 'Transactions of the Japan Institute of Metals' 1974 15 256 260 TJIMAA
loop_
_publ_author_name
'Osada, K.'
'Yamaguchi, S.'
'Hirabayashi, M.'
_cell_length_a 5.092
_cell_length_b 5.092
_cell_length_c 14.333
_cell_angle_alpha 90.
_cell_angle_beta 90.
_cell_angle_gamma 120.
_cell_volume 321.84
_cell_formula_units_Z 3
_symmetry_space_group_name_H-M 'R 3 H'
_symmetry_Int_Tables_number 146
_refine_ls_R_factor_all 0.04
loop_
_symmetry_equiv_pos_site_id
_symmetry_equiv_pos_as_xyz
1 '-x+y, -x, z'
2 '-y, x-y, z'
3 'x, y, z'
4 '-x+y+2/3, -x+1/3, z+1/3'
5 '-y+2/3, x-y+1/3, z+1/3'
6 'x+2/3, y+1/3, z+1/3'
7 '-x+y+1/3, -x+2/3, z+2/3'
8 '-y+1/3, x-y+2/3, z+2/3'
9 'x+1/3, y+2/3, z+2/3'
loop_
_atom_type_symbol
_atom_type_oxidation_number
Au0+ 0
Sn0+ 0
loop_
_atom_site_label
_atom_site_type_symbol
_atom_site_symmetry_multiplicity
_atom_site_Wyckoff_symbol
_atom_site_fract_x
_atom_site_fract_y
_atom_site_fract_z
_atom_site_B_iso_or_equiv
_atom_site_occupancy
_atom_site_attached_hydrogens
Au1 Au0+ 3 a 0 0 0.3307 . 1. 0
Au2 Au0+ 3 a 0 0 0.6693 . 1. 0
Au3 Au0+ 9 b 0.3333 0.3403 0.1667 . 1. 0
Sn1 Sn0+ 3 a 0 0 0 . 1. 0
#End of TTdata_58589-ICSD