
#(C) 2019 by FIZ Karlsruhe - Leibniz Institute for Information Infrastructure, and the U.S. Secretary of
#Commerce on behalf of the United States.  All rights reserved.
data_600489-ICSD
_database_code_ICSD 600489
_audit_creation_date 2011-02-01
_audit_update_record 2019-02-01
_chemical_name_systematic 'Rhodium bismuthide (1/3)'
_chemical_formula_structural 'Rh Bi3'
_chemical_formula_sum 'Bi3 Rh1'
_chemical_name_structure_type RhBi3
_exptl_crystal_density_diffrn 11.3
_publ_section_title 'Structural properties of Ni1-tRhtBi3'
_publ_section_comment 'Cell and Type only determined'
loop_
_citation_id
_citation_journal_full
_citation_year
_citation_journal_volume
_citation_page_first
_citation_page_last
_citation_journal_id_ASTM
primary 'Journal of the Less-Common Metals' 1987 128 177 183 JCOMAH
loop_
_publ_author_name
'Fjellvaag, Helmer'
'Furuseth, Sigrid'
_cell_length_a 8.868(2)
_cell_length_b 4.240(4)
_cell_length_c 11.378(4)
_cell_angle_alpha 90.
_cell_angle_beta 90.
_cell_angle_gamma 90.
_cell_volume 427.82
_cell_formula_units_Z 4
_symmetry_space_group_name_H-M 'P n m a'
_symmetry_Int_Tables_number 62
loop_
_symmetry_equiv_pos_site_id
_symmetry_equiv_pos_as_xyz
1 'x+1/2, y, -z+1/2'
2 'x, -y+1/2, z'
3 '-x+1/2, y+1/2, z+1/2'
4 '-x, -y, -z'
5 '-x+1/2, -y, z+1/2'
6 '-x, y+1/2, -z'
7 'x+1/2, -y+1/2, -z+1/2'
8 'x, y, z'
loop_
_atom_type_symbol
_atom_type_oxidation_number
Bi0+ 0
Rh0+ 0
loop_
_atom_site_label
_atom_site_type_symbol
_atom_site_symmetry_multiplicity
_atom_site_Wyckoff_symbol
_atom_site_fract_x
_atom_site_fract_y
_atom_site_fract_z
_atom_site_B_iso_or_equiv
_atom_site_occupancy
_atom_site_attached_hydrogens
Bi1 Bi0+ 4 c 0.402 0.25 0.18 . 1. 0
Bi2 Bi0+ 4 c 0.898 0.25 0.911 . 1. 0
Bi3 Bi0+ 4 c 0.799 0.25 0.614 . 1. 0
Rh1 Rh0+ 4 c 0.598 0.25 0.982 . 1. 0
#End of TTdata_600489-ICSD
