
#(C) 2019 by FIZ Karlsruhe - Leibniz Institute for Information Infrastructure.  All rights reserved.
data_60072-ICSD
_database_code_ICSD 60072
_audit_creation_date 1986-04-14
_audit_update_record 2004-10-01
_chemical_name_systematic 'Zirconium ruthenium silicide (2/3/4)'
_chemical_formula_structural 'Zr2 Ru3 Si4'
_chemical_formula_sum 'Ru3 Si4 Zr2'
_chemical_name_structure_type Hf2Ru3Si4
_exptl_crystal_density_diffrn 7.44
_publ_section_title

;
Hf2 Ru3 Si4 and Zr2 Ru3 Si4 with infinite Si-centered square antiprism columns
and infinite Ru-centered octahedron columns
;
loop_
_citation_id
_citation_journal_full
_citation_year
_citation_journal_volume
_citation_page_first
_citation_page_last
_citation_journal_id_ASTM
primary 'Acta Crystallographica, Section C: Crystal Structure Communications'
1985 41 1148 1152 ACSCEE
loop_
_publ_author_name
'Chabot, B.'
'Parthe, E.'
'Braun, H.F.'
_cell_length_a 18.992(3)
_cell_length_b 5.3476(8)
_cell_length_c 13.289(3)
_cell_angle_alpha 90.
_cell_angle_beta 127.73(1)
_cell_angle_gamma 90.
_cell_volume 1067.44
_cell_formula_units_Z 8
_symmetry_space_group_name_H-M 'C 1 2/c 1'
_symmetry_Int_Tables_number 15
_refine_ls_R_factor_all 0.056
loop_
_symmetry_equiv_pos_site_id
_symmetry_equiv_pos_as_xyz
1 'x, -y, z+1/2'
2 '-x, -y, -z'
3 '-x, y, -z+1/2'
4 'x, y, z'
5 'x+1/2, -y+1/2, z+1/2'
6 '-x+1/2, -y+1/2, -z'
7 '-x+1/2, y+1/2, -z+1/2'
8 'x+1/2, y+1/2, z'
loop_
_atom_type_symbol
_atom_type_oxidation_number
Ru0+ 0
Si0+ 0
Zr0+ 0
Ru0+ 0
Si0+ 0
Ru0+ 0
Zr0+ 0
Si0+ 0
loop_
_atom_site_label
_atom_site_type_symbol
_atom_site_symmetry_multiplicity
_atom_site_Wyckoff_symbol
_atom_site_fract_x
_atom_site_fract_y
_atom_site_fract_z
_atom_site_B_iso_or_equiv
_atom_site_occupancy
_atom_site_attached_hydrogens
Ru1 Ru0+ 8 f 0.02120(7) 0.1116(2) 0.41563(10) 0.0047(3) 1. 0
Si1 Si0+ 8 f 0.1128(3) 0.1426(7) 0.1058(3) 0.0054(6) 1. 0
Zr1 Zr0+ 8 f 0.16601(9) 0.1277(2) 0.3618(1) 0.0047(3) 1. 0
Ru2 Ru0+ 8 f 0.23791(7) 0.4087(2) 0.2200(1) 0.0034(3) 1. 0
Si2 Si0+ 8 f 0.2657(3) 0.1227(8) 0.1047(4) 0.0061(6) 1. 0
Si3 Si0+ 8 f 0.3298(3) 0.2432(7) 0.4353(4) 0.0029(6) 1. 0
Ru3 Ru0+ 8 f 0.37707(7) 0.1411(3) 0.0664(1) 0.0061(3) 1. 0
Zr2 Zr0+ 8 f 0.42666(9) 0.1290(3) 0.3522(2) 0.0052(4) 1. 0
Si4 Si0+ 4 e 0 0.3823(11) 0.25 0.0060(9) 1. 0
Si5 Si0+ 4 e 0 0.8717(11) 0.25 0.0041(8) 1. 0
#End of TTdata_60072-ICSD
