
#(C) 2019 by FIZ Karlsruhe - Leibniz Institute for Information Infrastructure, and the U.S. Secretary of
#Commerce on behalf of the United States.  All rights reserved.
data_601099-ICSD
_database_code_ICSD 601099
_audit_creation_date 2011-02-01
_chemical_name_systematic 'Lutetium germanide (1/2)'
_chemical_formula_structural 'Lu Ge2'
_chemical_formula_sum 'Ge2 Lu1'
_chemical_name_structure_type ZrSi2
_exptl_crystal_density_diffrn 8.9
_publ_section_title 'The phase diagram of the lutetium-germanium system'
_publ_section_comment 'Cell and Type only determined'
loop_
_citation_id
_citation_journal_full
_citation_year
_citation_journal_volume
_citation_page_first
_citation_page_last
_citation_journal_id_ASTM
primary

;
Dopovidi Akademii Nauk Ukrains'koi RSR, Seriya A: Fiziko-Matematichni ta
Tekhnichni Nauki
; 1987 49 78 82 DNUNDU
loop_
_publ_author_name
'Eremenko, V.N.'
'Meleshevich, K.A.'
'Buyanov, Yu.I.'
'Petyukh, V.M.'
_cell_length_a 3.987
_cell_length_b 15.558
_cell_length_c 3.851
_cell_angle_alpha 90.
_cell_angle_beta 90.
_cell_angle_gamma 90.
_cell_volume 238.88
_cell_formula_units_Z 4
_symmetry_space_group_name_H-M 'C m c m'
_symmetry_Int_Tables_number 63
loop_
_symmetry_equiv_pos_site_id
_symmetry_equiv_pos_as_xyz
1 '-x, y, -z+1/2'
2 '-x, -y, z+1/2'
3 '-x, y, z'
4 '-x, -y, -z'
5 'x, -y, z+1/2'
6 'x, y, -z+1/2'
7 'x, -y, -z'
8 'x, y, z'
9 '-x+1/2, y+1/2, -z+1/2'
10 '-x+1/2, -y+1/2, z+1/2'
11 '-x+1/2, y+1/2, z'
12 '-x+1/2, -y+1/2, -z'
13 'x+1/2, -y+1/2, z+1/2'
14 'x+1/2, y+1/2, -z+1/2'
15 'x+1/2, -y+1/2, -z'
16 'x+1/2, y+1/2, z'
loop_
_atom_type_symbol
_atom_type_oxidation_number
Lu0+ 0
Ge0+ 0
loop_
_atom_site_label
_atom_site_type_symbol
_atom_site_symmetry_multiplicity
_atom_site_Wyckoff_symbol
_atom_site_fract_x
_atom_site_fract_y
_atom_site_fract_z
_atom_site_B_iso_or_equiv
_atom_site_occupancy
_atom_site_attached_hydrogens
Lu1 Lu0+ 4 c 0 0.104 0.25 . 1. 0
Ge1 Ge0+ 4 c 0 0.75 0.25 . 1. 0
Ge2 Ge0+ 4 c 0 0.447 0.25 . 1. 0
#End of TTdata_601099-ICSD
