
#(C) 2019 by FIZ Karlsruhe - Leibniz Institute for Information Infrastructure, and the U.S. Secretary of
#Commerce on behalf of the United States.  All rights reserved.
data_604422-ICSD
_database_code_ICSD 604422
_audit_creation_date 2008-08-01
_audit_update_record 2017-08-01
_chemical_name_systematic 'Ytterbium rhodium tin (3/4/13)'
_chemical_formula_structural 'Yb3 Rh4 Sn13'
_chemical_formula_sum 'Rh4 Sn13 Yb3'
_chemical_name_structure_type Pr3Rh4Sn13
_exptl_crystal_density_diffrn 9.04
_publ_section_title

;
Nature of the structural distortion and of the chemical bonding in Sn
M3Rh4Sn12 (M = La-Gd, Yb, Ca, Sr, and Th)
;
loop_
_citation_id
_citation_journal_full
_citation_year
_citation_journal_volume
_citation_page_first
_citation_page_last
_citation_journal_id_ASTM
primary 'Journal of Solid State Chemistry' 1986 63 358 368 JSSCBI
loop_
_publ_author_name
'Miraglia, S.'
'Hodeau, J.L.'
'Marezio, M.'
'Laviron, C.'
'Ghedira, M.'
'Espinosa, G.P.'
_cell_length_a 9.676(1)
_cell_length_b 9.676(1)
_cell_length_c 9.676(1)
_cell_angle_alpha 90.
_cell_angle_beta 90.
_cell_angle_gamma 90.
_cell_volume 905.92
_cell_formula_units_Z 2
_symmetry_space_group_name_H-M 'P m -3 n'
_symmetry_Int_Tables_number 223
_refine_ls_R_factor_all 0.016
loop_
_symmetry_equiv_pos_site_id
_symmetry_equiv_pos_as_xyz
1 'z+1/2, -y+1/2, x+1/2'
2 'y+1/2, -x+1/2, z+1/2'
3 'x+1/2, -z+1/2, y+1/2'
4 '-z+1/2, y+1/2, -x+1/2'
5 '-y+1/2, x+1/2, -z+1/2'
6 '-x+1/2, z+1/2, -y+1/2'
7 'z+1/2, y+1/2, -x+1/2'
8 'y+1/2, x+1/2, -z+1/2'
9 'x+1/2, z+1/2, -y+1/2'
10 '-z+1/2, -y+1/2, x+1/2'
11 '-y+1/2, -x+1/2, z+1/2'
12 '-x+1/2, -z+1/2, y+1/2'
13 '-z+1/2, y+1/2, x+1/2'
14 '-y+1/2, x+1/2, z+1/2'
15 '-x+1/2, z+1/2, y+1/2'
16 'z+1/2, -y+1/2, -x+1/2'
17 'y+1/2, -x+1/2, -z+1/2'
18 'x+1/2, -z+1/2, -y+1/2'
19 '-z+1/2, -y+1/2, -x+1/2'
20 '-y+1/2, -x+1/2, -z+1/2'
21 '-x+1/2, -z+1/2, -y+1/2'
22 'z+1/2, y+1/2, x+1/2'
23 'y+1/2, x+1/2, z+1/2'
24 'x+1/2, z+1/2, y+1/2'
25 'z, x, -y'
26 'y, z, -x'
27 'x, y, -z'
28 '-z, -x, y'
29 '-y, -z, x'
30 '-x, -y, z'
31 'z, -x, y'
32 'y, -z, x'
33 'x, -y, z'
34 '-z, x, -y'
35 '-y, z, -x'
36 '-x, y, -z'
37 '-z, x, y'
38 '-y, z, x'
39 '-x, y, z'
40 'z, -x, -y'
41 'y, -z, -x'
42 'x, -y, -z'
43 '-z, -x, -y'
44 '-y, -z, -x'
45 '-x, -y, -z'
46 'z, x, y'
47 'y, z, x'
48 'x, y, z'
loop_
_atom_type_symbol
_atom_type_oxidation_number
Rh0+ 0
Sn0+ 0
Yb0+ 0
loop_
_atom_site_label
_atom_site_type_symbol
_atom_site_symmetry_multiplicity
_atom_site_Wyckoff_symbol
_atom_site_fract_x
_atom_site_fract_y
_atom_site_fract_z
_atom_site_B_iso_or_equiv
_atom_site_occupancy
_atom_site_attached_hydrogens
Rh1 Rh0+ 8 e 0.25 0.25 0.25 . 1 0
Sn1 Sn0+ 2 a 0 0 0 . 1 0
Sn2 Sn0+ 24 k 0 0.30570(4) 0.15333(3) . 1 0
Yb1 Yb0+ 6 d 0.25 0.5 0 . 1 0
loop_
_atom_site_aniso_label
_atom_site_aniso_type_symbol
_atom_site_aniso_beta_11
_atom_site_aniso_beta_22
_atom_site_aniso_beta_33
_atom_site_aniso_beta_12
_atom_site_aniso_beta_13
_atom_site_aniso_beta_23
Rh1 Rh0+ 0.00151(4) 0.00151(4) 0.00151(4) -0.0001(1) -0.0001(1) -0.0001(1)
Sn1 Sn0+ 0.0040(1) 0.0040(1) 0.0040(1) 0 0 0
Sn2 Sn0+ 0.00144(2) 0.00503(2) 0.00211(2) 0 0 0.00263(4)
Yb1 Yb0+ 0.00264(2) 0.00213(3) 0.00212(3) 0 0 0
#End of TTdata_604422-ICSD
