
#(C) 2019 by FIZ Karlsruhe - Leibniz Institute for Information Infrastructure, and the U.S. Secretary of
#Commerce on behalf of the United States.  All rights reserved.
data_606030-ICSD
_database_code_ICSD 606030
_audit_creation_date 2012-02-01
_audit_update_record 2018-02-01
_chemical_name_systematic 'Aluminum gold (1/4) - HT, HP'
_chemical_formula_structural 'Al Au4'
_chemical_formula_sum 'Al1 Au4'
_chemical_name_structure_type AlAu4
_exptl_crystal_density_diffrn 16.33
_publ_section_title
'Etude par diffraction eletronique des alliages or-aluminium'
loop_
_citation_id
_citation_journal_full
_citation_year
_citation_journal_volume
_citation_page_first
_citation_page_last
_citation_journal_id_ASTM
primary 'Memoires Scientifiques de la Revue de Metallurgie' 1965 62 207 214
MRMTAU
loop_
_publ_author_name
'Tertian, Lea'
'Darmagna, Daniele'
_cell_length_a 6.92
_cell_length_b 6.92
_cell_length_c 6.92
_cell_angle_alpha 90.
_cell_angle_beta 90.
_cell_angle_gamma 90.
_cell_volume 331.37
_cell_formula_units_Z 4
_symmetry_space_group_name_H-M 'P 21 3'
_symmetry_Int_Tables_number 198
loop_
_symmetry_equiv_pos_site_id
_symmetry_equiv_pos_as_xyz
1 '-z+1/2, -x, y+1/2'
2 '-y+1/2, -z, x+1/2'
3 '-x+1/2, -y, z+1/2'
4 '-z, x+1/2, -y+1/2'
5 '-y, z+1/2, -x+1/2'
6 '-x, y+1/2, -z+1/2'
7 'z+1/2, -x+1/2, -y'
8 'y+1/2, -z+1/2, -x'
9 'x+1/2, -y+1/2, -z'
10 'z, x, y'
11 'y, z, x'
12 'x, y, z'
loop_
_atom_type_symbol
_atom_type_oxidation_number
Au0+ 0
Al0+ 0
loop_
_atom_site_label
_atom_site_type_symbol
_atom_site_symmetry_multiplicity
_atom_site_Wyckoff_symbol
_atom_site_fract_x
_atom_site_fract_y
_atom_site_fract_z
_atom_site_B_iso_or_equiv
_atom_site_occupancy
_atom_site_attached_hydrogens
Au1 Au0+ 12 b 0.133 0.201 0.462 . 1. 0
Au2 Au0+ 4 a 0.067 0.067 0.067 . 1. 0
Al1 Al0+ 4 a 0.69 0.69 0.69 . 1. 0
#End of TTdata_606030-ICSD
