
#(C) 2019 by FIZ Karlsruhe - Leibniz Institute for Information Infrastructure, and the U.S. Secretary of
#Commerce on behalf of the United States.  All rights reserved.
data_608629-ICSD
_database_code_ICSD 608629
_audit_creation_date 2012-02-01
_audit_update_record 2019-02-01
_chemical_name_systematic 'Niobium aluminium nitride (3/2/1)'
_chemical_formula_structural 'Nb3 Al2 N'
_chemical_formula_sum 'Al2 N1 Nb3'
_chemical_name_structure_type Al2Mo3C
_exptl_crystal_density_diffrn 6.62
_publ_section_title 'Phasen mit aufgefuellter beta-Manganstruktur'
_publ_section_comment 'Cell and Type only determined'
loop_
_citation_id
_citation_journal_full
_citation_year
_citation_journal_volume
_citation_page_first
_citation_page_last
_citation_journal_id_ASTM
primary 'Monatshefte fuer Chemie' 1964 95 1212 1218 MOCMB7
loop_
_publ_author_name
'Jeitschko, W.'
'Nowotny, H.'
'Benesovsky, F.'
_cell_length_a 7.034
_cell_length_b 7.034
_cell_length_c 7.034
_cell_angle_alpha 90.
_cell_angle_beta 90.
_cell_angle_gamma 90.
_cell_volume 348.02
_cell_formula_units_Z 4
_symmetry_space_group_name_H-M 'P 41 3 2'
_symmetry_Int_Tables_number 213
loop_
_symmetry_equiv_pos_site_id
_symmetry_equiv_pos_as_xyz
1 '-z+1/4, y+3/4, x+1/4'
2 'z+1/4, -y+1/4, x+3/4'
3 'z+3/4, y+1/4, -x+1/4'
4 '-z+3/4, -y+3/4, -x+3/4'
5 'y+3/4, x+1/4, -z+1/4'
6 '-y+1/4, x+3/4, z+1/4'
7 'y+1/4, -x+1/4, z+3/4'
8 '-y+3/4, -x+3/4, -z+3/4'
9 'x+1/4, -z+1/4, y+3/4'
10 'x+3/4, z+1/4, -y+1/4'
11 '-x+1/4, z+3/4, y+1/4'
12 '-x+3/4, -z+3/4, -y+3/4'
13 'z+1/2, -x+1/2, -y'
14 '-z+1/2, -x, y+1/2'
15 '-z, x+1/2, -y+1/2'
16 'z, x, y'
17 '-y, z+1/2, -x+1/2'
18 'y+1/2, -z+1/2, -x'
19 '-y+1/2, -z, x+1/2'
20 'y, z, x'
21 '-x+1/2, -y, z+1/2'
22 '-x, y+1/2, -z+1/2'
23 'x+1/2, -y+1/2, -z'
24 'x, y, z'
loop_
_atom_type_symbol
_atom_type_oxidation_number
Al0+ 0
Nb0+ 0
N0+ 0
loop_
_atom_site_label
_atom_site_type_symbol
_atom_site_symmetry_multiplicity
_atom_site_Wyckoff_symbol
_atom_site_fract_x
_atom_site_fract_y
_atom_site_fract_z
_atom_site_B_iso_or_equiv
_atom_site_occupancy
_atom_site_attached_hydrogens
Al1 Al0+ 8 c 0.061 0.061 0.061 . 1. 0
Nb1 Nb0+ 12 d 0.125 0.206 0.456 . 1. 0
N1 N0+ 4 a 0.375 0.375 0.375 . 1. 0
#End of TTdata_608629-ICSD
