
#(C) 2019 by FIZ Karlsruhe - Leibniz Institute for Information Infrastructure, and the U.S. Secretary of
#Commerce on behalf of the United States.  All rights reserved.
data_609502-ICSD
_database_code_ICSD 609502
_audit_creation_date 2008-08-01
_audit_update_record 2018-02-01
_chemical_name_systematic 'Aluminium thorium (2/3)'
_chemical_formula_structural 'Al2 Th3'
_chemical_formula_sum 'Al2 Th3'
_chemical_name_structure_type U3Si2
_exptl_crystal_density_diffrn 8.95
_publ_section_title 'The crystal structures of some thorium compounds'
loop_
_citation_id
_citation_journal_full
_citation_year
_citation_journal_volume
_citation_page_first
_citation_page_last
_citation_journal_id_ASTM
primary 'Journal of the Institute of Metals' 1956 84 91 96 JIMEAP
loop_
_publ_author_name
'Murray, J.R.'
_cell_length_a 8.125(9)
_cell_length_b 8.125(9)
_cell_length_c 4.217(3)
_cell_angle_alpha 90.
_cell_angle_beta 90.
_cell_angle_gamma 90.
_cell_volume 278.39
_cell_formula_units_Z 2
_symmetry_space_group_name_H-M 'P 4/m b m'
_symmetry_Int_Tables_number 127
loop_
_symmetry_equiv_pos_site_id
_symmetry_equiv_pos_as_xyz
1 'y+1/2, x+1/2, -z'
2 '-y+1/2, -x+1/2, -z'
3 '-y, x, -z'
4 'y, -x, -z'
5 'x+1/2, -y+1/2, -z'
6 '-x+1/2, y+1/2, -z'
7 'x, y, -z'
8 '-x, -y, -z'
9 '-y+1/2, -x+1/2, z'
10 'y+1/2, x+1/2, z'
11 'y, -x, z'
12 '-y, x, z'
13 '-x+1/2, y+1/2, z'
14 'x+1/2, -y+1/2, z'
15 '-x, -y, z'
16 'x, y, z'
loop_
_atom_type_symbol
_atom_type_oxidation_number
Al0+ 0
Th0+ 0
loop_
_atom_site_label
_atom_site_type_symbol
_atom_site_symmetry_multiplicity
_atom_site_Wyckoff_symbol
_atom_site_fract_x
_atom_site_fract_y
_atom_site_fract_z
_atom_site_B_iso_or_equiv
_atom_site_occupancy
_atom_site_attached_hydrogens
Al1 Al0+ 4 g 0.39 0.89 0 . 1 0
Th1 Th0+ 2 a 0 0 0 . 1 0
Th2 Th0+ 4 h 0.179 0.679 0.5 . 1 0
#End of TTdata_609502-ICSD
