
#(C) 2019 by FIZ Karlsruhe - Leibniz Institute for Information Infrastructure, and the U.S. Secretary of
#Commerce on behalf of the United States.  All rights reserved.
data_610156-ICSD
_database_code_ICSD 610156
_audit_creation_date 2008-07-07
_audit_update_record 2018-02-01
_chemical_name_systematic 'Chromium arsenide (1/1)'
_chemical_formula_structural 'Cr As'
_chemical_formula_sum 'As1 Cr1'
_chemical_name_structure_type MnP
_exptl_crystal_density_diffrn 6.77
_publ_section_title 'Roentgenographische Untersuchung im System Cr - Cr As'
loop_
_citation_id
_citation_journal_full
_citation_year
_citation_journal_volume
_citation_page_first
_citation_page_last
_citation_journal_id_ASTM
primary 'Zeitschrift fuer Physikalische Chemie (Leipzig)' 1938 38 461 465 ZPCLAH
loop_
_publ_author_name
'Nowotny, H.'
'Arstad, O.'
_cell_length_a 5.742
_cell_length_b 3.486
_cell_length_c 6.222
_cell_angle_alpha 90.
_cell_angle_beta 90.
_cell_angle_gamma 90.
_cell_volume 124.54
_cell_formula_units_Z 4
_symmetry_space_group_name_H-M 'P n m a'
_symmetry_Int_Tables_number 62
loop_
_symmetry_equiv_pos_site_id
_symmetry_equiv_pos_as_xyz
1 'x+1/2, y, -z+1/2'
2 'x, -y+1/2, z'
3 '-x+1/2, y+1/2, z+1/2'
4 '-x, -y, -z'
5 '-x+1/2, -y, z+1/2'
6 '-x, y+1/2, -z'
7 'x+1/2, -y+1/2, -z+1/2'
8 'x, y, z'
loop_
_atom_type_symbol
_atom_type_oxidation_number
As0+ 0
Cr0+ 0
loop_
_atom_site_label
_atom_site_type_symbol
_atom_site_symmetry_multiplicity
_atom_site_Wyckoff_symbol
_atom_site_fract_x
_atom_site_fract_y
_atom_site_fract_z
_atom_site_B_iso_or_equiv
_atom_site_occupancy
_atom_site_attached_hydrogens
As1 As0+ 4 c 0.2 0.25 0.58 . 1. 0
Cr1 Cr0+ 4 c 0.01 0.25 0.19 . 1. 0
#End of TTdata_610156-ICSD
