
#(C) 2019 by FIZ Karlsruhe - Leibniz Institute for Information Infrastructure, and the U.S. Secretary of
#Commerce on behalf of the United States.  All rights reserved.
data_610989-ICSD
_database_code_ICSD 610989
_audit_creation_date 2013-02-01
_audit_update_record 2017-08-01
_chemical_name_systematic 'Niobium arsenide (3/1)'
_chemical_formula_structural 'Nb3 As'
_chemical_formula_sum 'As1 Nb3'
_chemical_name_structure_type Ti3P
_exptl_crystal_density_diffrn 8.53
_publ_section_title 'New metal-rich arsenides of niobium and tantalum'
_publ_section_comment 'Cell and Type only determined'
loop_
_citation_id
_citation_journal_full
_citation_year
_citation_journal_volume
_citation_page_first
_citation_page_last
_citation_journal_id_ASTM
primary 'Acta Chemica Scandinavica ' 1969 23 2188 2190 ACSAA4
loop_
_publ_author_name
'Rundqvist, Stil'
'Carlsson, Bertil'
'Pontchour, Cha-On'
_cell_length_a 10.2937(8)
_cell_length_b 10.2937(8)
_cell_length_c 5.1971(6)
_cell_angle_alpha 90.
_cell_angle_beta 90.
_cell_angle_gamma 90.
_cell_volume 550.69
_cell_formula_units_Z 8
_symmetry_space_group_name_H-M 'P 42/n Z'
_symmetry_Int_Tables_number 86
loop_
_symmetry_equiv_pos_site_id
_symmetry_equiv_pos_as_xyz
1 '-y+1/2, x, -z+1/2'
2 'y, -x+1/2, -z+1/2'
3 'x+1/2, y+1/2, -z'
4 '-x, -y, -z'
5 'y+1/2, -x, z+1/2'
6 '-y, x+1/2, z+1/2'
7 '-x+1/2, -y+1/2, z'
8 'x, y, z'
loop_
_atom_type_symbol
_atom_type_oxidation_number
Nb0+ 0
As0+ 0
loop_
_atom_site_label
_atom_site_type_symbol
_atom_site_symmetry_multiplicity
_atom_site_Wyckoff_symbol
_atom_site_fract_x
_atom_site_fract_y
_atom_site_fract_z
_atom_site_B_iso_or_equiv
_atom_site_occupancy
_atom_site_attached_hydrogens
Nb1 Nb0+ 8 g 0.165 0.655 0.727 . 1. 0
Nb2 Nb0+ 8 g 0.102 0.262 0.518 . 1. 0
Nb3 Nb0+ 8 g 0.056 0.536 0.241 . 1. 0
As1 As0+ 8 g 0.043 0.271 0.02 . 1. 0
#End of TTdata_610989-ICSD
