
#(C) 2019 by FIZ Karlsruhe - Leibniz Institute for Information Infrastructure, and the U.S. Secretary of
#Commerce on behalf of the United States.  All rights reserved.
data_611576-ICSD
_database_code_ICSD 611576
_audit_creation_date 2013-02-01
_chemical_name_systematic 'Tungsten arsenide (1/2)'
_chemical_formula_structural 'W As2'
_chemical_formula_sum 'As2 W1'
_chemical_name_structure_type MoAs2
_exptl_crystal_density_diffrn 10.99
_publ_section_title

;
The systems molybdenum-arsenic, tungsten-arsenic, molybdenum-antimony,
tungsten-antimony, niobium-bismuth, tantalum-bismuth, molybdenum-bismuth, and
tungsten-bismuth
;
_publ_section_comment 'Cell and Type only determined'
loop_
_citation_id
_citation_journal_full
_citation_year
_citation_journal_volume
_citation_page_first
_citation_page_last
_citation_journal_id_ASTM
primary 'Acta Chemica Scandinavica ' 1966 20 403 416 ACSAA4
loop_
_publ_author_name
'Jensen, P.'
'Kjekshus, A.'
'Skansen, T.'
_cell_length_a 9.078(2)
_cell_length_b 3.3177(6)
_cell_length_c 7.686(1)
_cell_angle_alpha 90.
_cell_angle_beta 119.42(2)
_cell_angle_gamma 90.
_cell_volume 201.64
_cell_formula_units_Z 4
_symmetry_space_group_name_H-M 'C 1 2 1'
_symmetry_Int_Tables_number 5
loop_
_symmetry_equiv_pos_site_id
_symmetry_equiv_pos_as_xyz
1 '-x, y, -z'
2 'x, y, z'
3 '-x+1/2, y+1/2, -z'
4 'x+1/2, y+1/2, z'
loop_
_atom_type_symbol
_atom_type_oxidation_number
W0+ 0
As0+ 0
loop_
_atom_site_label
_atom_site_type_symbol
_atom_site_symmetry_multiplicity
_atom_site_Wyckoff_symbol
_atom_site_fract_x
_atom_site_fract_y
_atom_site_fract_z
_atom_site_B_iso_or_equiv
_atom_site_occupancy
_atom_site_attached_hydrogens
W1 W0+ 4 c 0.154 0 0.2 . 1. 0
As1 As0+ 4 c 0.399 0 0.112 . 1. 0
As2 As0+ 4 c 0.357 0.5 0.469 . 1. 0
#End of TTdata_611576-ICSD
