
#(C) 2019 by FIZ Karlsruhe - Leibniz Institute for Information Infrastructure, and the U.S. Secretary of
#Commerce on behalf of the United States.  All rights reserved.
data_612672-ICSD
_database_code_ICSD 612672
_audit_creation_date 2013-02-01
_audit_update_record 2019-02-01
_chemical_name_systematic 'Yttrium boride carbide (1/2/2)'
_chemical_formula_structural 'Y B2 C2'
_chemical_formula_sum 'C2 B2 Y1'
_chemical_name_structure_type LaB2C2
_exptl_crystal_density_diffrn 4.4
_publ_section_title

;
Electrical properties of rare earth diborodicarbides (RB2C2-type layer
compounds)
;
_publ_section_comment 'Cell and Type only determined'
loop_
_citation_id
_citation_journal_full
_citation_year
_citation_journal_volume
_citation_page_first
_citation_page_last
_citation_journal_id_ASTM
primary 'Journal of the Less-Common Metals' 1982 84 107 114 JCOMAH
loop_
_publ_author_name
'Sakai, Tetsuo'
'Adachi, Gin-Ya'
'Shiokawa, Jiro'
_cell_length_a 3.780(1)
_cell_length_b 3.780(1)
_cell_length_c 7.111(2)
_cell_angle_alpha 90.
_cell_angle_beta 90.
_cell_angle_gamma 90.
_cell_volume 101.6
_cell_formula_units_Z 2
_symmetry_space_group_name_H-M 'P 42/m m c'
_symmetry_Int_Tables_number 131
loop_
_symmetry_equiv_pos_site_id
_symmetry_equiv_pos_as_xyz
1 'y, x, z+1/2'
2 '-y, -x, z+1/2'
3 '-x, y, z'
4 'x, -y, z'
5 '-y, x, -z+1/2'
6 'y, -x, -z+1/2'
7 'x, y, -z'
8 '-x, -y, -z'
9 '-y, -x, -z+1/2'
10 'y, x, -z+1/2'
11 'x, -y, -z'
12 '-x, y, -z'
13 'y, -x, z+1/2'
14 '-y, x, z+1/2'
15 '-x, -y, z'
16 'x, y, z'
loop_
_atom_type_symbol
_atom_type_oxidation_number
Y0+ 0
B0+ 0
C0+ 0
loop_
_atom_site_label
_atom_site_type_symbol
_atom_site_symmetry_multiplicity
_atom_site_Wyckoff_symbol
_atom_site_fract_x
_atom_site_fract_y
_atom_site_fract_z
_atom_site_B_iso_or_equiv
_atom_site_occupancy
_atom_site_attached_hydrogens
Y1 Y0+ 2 e 0 0 0.25 . 1. 0
B1 B0+ 4 m 0.5 0.226 0.5 . 1. 0
C1 C0+ 4 k 0.173 0.5 0.5 . 1. 0
#End of TTdata_612672-ICSD
