
#(C) 2019 by FIZ Karlsruhe - Leibniz Institute for Information Infrastructure.  All rights reserved.
data_76622-ICSD
_database_code_ICSD 76622
_audit_creation_date 2001-07-16
_audit_update_record 2017-08-01
_chemical_name_systematic 'Iridium germanide'
_chemical_formula_structural 'Ir Ge'
_chemical_formula_sum 'Ge1 Ir1'
_chemical_name_structure_type MnP
_exptl_crystal_density_diffrn 14.36
_publ_section_title 'Neue Phasen vom Mn P (B-31)-Typ'
loop_
_citation_id
_citation_journal_full
_citation_year
_citation_journal_volume
_citation_page_first
_citation_page_last
_citation_journal_id_ASTM
primary 'Zeitschrift fuer Metallkunde' 1950 41 358 367 ZEMTAE
loop_
_publ_author_name
'Pfisterer, Hermann'
'Schubert, Konrad'
_cell_length_a 6.281
_cell_length_b 5.611
_cell_length_c 3.4895
_cell_angle_alpha 90.
_cell_angle_beta 90.
_cell_angle_gamma 90.
_cell_volume 122.98
_cell_formula_units_Z 4
_symmetry_space_group_name_H-M 'P b n m'
_symmetry_Int_Tables_number 62
loop_
_symmetry_equiv_pos_site_id
_symmetry_equiv_pos_as_xyz
1 '-x+1/2, y+1/2, z'
2 'x, y, -z+1/2'
3 'x+1/2, -y+1/2, z+1/2'
4 '-x, -y, -z'
5 'x+1/2, -y+1/2, -z'
6 '-x, -y, z+1/2'
7 '-x+1/2, y+1/2, -z+1/2'
8 'x, y, z'
loop_
_atom_type_symbol
_atom_type_oxidation_number
Ir0+ 0
Ge0+ 0
loop_
_atom_site_label
_atom_site_type_symbol
_atom_site_symmetry_multiplicity
_atom_site_Wyckoff_symbol
_atom_site_fract_x
_atom_site_fract_y
_atom_site_fract_z
_atom_site_B_iso_or_equiv
_atom_site_occupancy
_atom_site_attached_hydrogens
Ir1 Ir0+ 4 c 0.192 0.01 0.25 . 1. 0
Ge1 Ge0+ 4 c 0.59 0.185 0.25 . 1. 0
#End of TTdata_76622-ICSD