
#(C) 2019 by FIZ Karlsruhe - Leibniz Institute for Information Infrastructure.  All rights reserved.
data_78650-ICSD
_database_code_ICSD 78650
_audit_creation_date 1997-05-13
_chemical_name_systematic 'Distrontium copper dioxide carbonate'
_chemical_formula_structural 'Sr2 Cu O2 (C O3)'
_chemical_formula_sum 'C1 Cu1 O5 Sr2'
_chemical_name_structure_type Sr2CuO2CO3
_exptl_crystal_density_diffrn 4.8
_publ_section_title 'Structural phase transition of Sr2 Cu O2 (C O3)'
loop_
_citation_id
_citation_journal_full
_citation_year
_citation_journal_volume
_citation_page_first
_citation_page_last
_citation_journal_id_ASTM
primary
'Physica C: Superconductivity and Ist Application (Amsterdam, Netherlands)' 1995 255 157 166 PHYCE6
loop_
_publ_author_name
'Nakata, H.'
'Akimitsu, J.'
'Katano, S.'
'Minami, T.'
'Ogita, N.'
'Udagawa, M.'
_cell_length_a 7.81101(12)
_cell_length_b 7.81101(12)
_cell_length_c 14.9919(2)
_cell_angle_alpha 90.
_cell_angle_beta 90.
_cell_angle_gamma 90.
_cell_volume 914.68
_cell_formula_units_Z 8
_symmetry_space_group_name_H-M 'I -4'
_symmetry_Int_Tables_number 82
_refine_ls_R_factor_all 0.0379
loop_
_symmetry_equiv_pos_site_id
_symmetry_equiv_pos_as_xyz
1 '-y, x, -z'
2 'y, -x, -z'
3 '-x, -y, z'
4 'x, y, z'
5 '-y+1/2, x+1/2, -z+1/2'
6 'y+1/2, -x+1/2, -z+1/2'
7 '-x+1/2, -y+1/2, z+1/2'
8 'x+1/2, y+1/2, z+1/2'
loop_
_atom_type_symbol
_atom_type_oxidation_number
Sr2+ 2
Cu2+ 2
C4+ 4
O2- -2
loop_
_atom_site_label
_atom_site_type_symbol
_atom_site_symmetry_multiplicity
_atom_site_Wyckoff_symbol
_atom_site_fract_x
_atom_site_fract_y
_atom_site_fract_z
_atom_site_B_iso_or_equiv
_atom_site_occupancy
_atom_site_attached_hydrogens
Sr1 Sr2+ 4 e 0 0 0.111(3) 0.65(11) 1. 0
Sr2 Sr2+ 4 e 0 0 0.385(2) 0.65(11) 1. 0
Sr3 Sr2+ 4 f 0 0.5 0.1056(17) 0.65(11) 1. 0
Sr4 Sr2+ 4 f 0.5 0 0.3801(17) 0.65(11) 1. 0
Cu1 Cu2+ 8 g 0.248(4) 0.252(3) 0.0003(17) 0.34(13) 1. 0
C1 C4+ 8 g 0.240(2) 0.248(2) 0.249(2) 0.79(19) 1. 0
O1 O2- 8 g 0.252(5) 0.000(3) 0.0048(18) 0.43(13) 1. 0
O2 O2- 8 g 0.251(5) 0.000(3) 0.4876(15) 0.43(13) 1. 0
O3 O2- 8 g 0.165(3) 0.741(5) 0.181(2) 2.5(5) 1. 0
O4 O2- 8 g 0.419(2) 0.740(3) 0.244(3) 3.3(5) 1. 0
O5 O2- 8 g 0.225(5) 0.294(3) 0.1698(18) 3.3(7) 1. 0
#End of TTdata_78650-ICSD
