
#(C) 2019 by FIZ Karlsruhe - Leibniz Institute for Information Infrastructure.  All rights reserved.
data_78871-ICSD
_database_code_ICSD 78871
_audit_creation_date 1997-11-10
_audit_update_record 2010-08-01
_chemical_name_systematic 'Yttrium bromide carbide (2/2/2)'
_chemical_formula_structural 'Y2 Br2 C2'
_chemical_formula_sum 'C2 Br2 Y2'
_chemical_name_structure_type Gd2C2Br2
_exptl_crystal_density_diffrn 4.69
_publ_section_title
'Supraleitung in Seltenerdmetall-Carbidhalogeniden des Typs SE2X2C2'
loop_
_citation_id
_citation_journal_full
_citation_year
_citation_journal_volume
_citation_page_first
_citation_page_last
_citation_journal_id_ASTM
primary 'Zeitschrift fuer Anorganische und Allgemeine Chemie (1950) (DE)' 1996
622 123 137 ZAACAB
loop_
_publ_author_name
'Simon, A.'
'Yoshiasa, A.'
'Baecker, M.'
'Henn, R.W.'
'Felser, C.'
'Kremer, R.K.'
'Mattausch, H.J.'
_cell_length_a 6.953(1)
_cell_length_b 3.764(1)
_cell_length_c 9.938(1)
_cell_angle_alpha 90.
_cell_angle_beta 99.98(1)
_cell_angle_gamma 90.
_cell_volume 256.15
_cell_formula_units_Z 2
_symmetry_space_group_name_H-M 'C 1 2/m 1'
_symmetry_Int_Tables_number 12
_refine_ls_R_factor_all 0.11
loop_
_symmetry_equiv_pos_site_id
_symmetry_equiv_pos_as_xyz
1 '-x, y, -z'
2 '-x, -y, -z'
3 'x, -y, z'
4 'x, y, z'
5 '-x+1/2, y+1/2, -z'
6 '-x+1/2, -y+1/2, -z'
7 'x+1/2, -y+1/2, z'
8 'x+1/2, y+1/2, z'
loop_
_atom_type_symbol
_atom_type_oxidation_number
Y3+ 3
Br1- -1
C2- -2
loop_
_atom_site_label
_atom_site_type_symbol
_atom_site_symmetry_multiplicity
_atom_site_Wyckoff_symbol
_atom_site_fract_x
_atom_site_fract_y
_atom_site_fract_z
_atom_site_B_iso_or_equiv
_atom_site_occupancy
_atom_site_attached_hydrogens
Y1 Y3+ 4 i 0.4089(4) 0 0.1481(3) . 1. 0
Br1 Br1- 4 i 0.7966(4) 0 0.3379(2) . 1. 0
C1 C2- 4 i 0.088(5) 0 0.034(4) 0.016(6) 1. 0
loop_
_atom_site_aniso_label
_atom_site_aniso_type_symbol
_atom_site_aniso_U_11
_atom_site_aniso_U_22
_atom_site_aniso_U_33
_atom_site_aniso_U_12
_atom_site_aniso_U_13
_atom_site_aniso_U_23
Y1 Y3+ 0.013(1) 0.004(1) 0.020(1) 0 0.009(1) 0
Br1 Br1- 0.016(2) 0.010(1) 0.018(2) 0 0.007(1) 0
#End of TTdata_78871-ICSD
