
#(C) 2019 by FIZ Karlsruhe - Leibniz Institute for Information Infrastructure.  All rights reserved.
data_80200-ICSD
_database_code_ICSD 80200
_audit_creation_date 1996-10-14
_chemical_name_systematic 'Praseodymium iron phosphide oxide'
_chemical_formula_structural 'Pr Fe P O'
_chemical_formula_sum 'Fe1 O1 P1 Pr1'
_chemical_name_structure_type ZrCuSiAs-CuHfSi2
_exptl_crystal_density_diffrn 6.34
_publ_section_title

;
The rare earth transition metal phosphide oxides Ln Fe P O, Ln Ru PO and Ln Co
P O with Zr Cu Si As type structure
;
loop_
_citation_id
_citation_journal_full
_citation_year
_citation_journal_volume
_citation_page_first
_citation_page_last
_citation_journal_id_ASTM
primary 'Journal of Alloys and Compounds' 1995 229 238 242 JALCEU
loop_
_publ_author_name
'Zimmer, B.I.'
'Jeitschko, W.'
'Albering, J.H.'
'Glaum, R.'
'Reehuis, M.'
_cell_length_a 3.9113(6)
_cell_length_b 3.9113(6)
_cell_length_c 8.3452(2)
_cell_angle_alpha 90.
_cell_angle_beta 90.
_cell_angle_gamma 90.
_cell_volume 127.67
_cell_formula_units_Z 2
_symmetry_space_group_name_H-M 'P 4/n m m Z'
_symmetry_Int_Tables_number 129
_refine_ls_R_factor_all 0.026
loop_
_symmetry_equiv_pos_site_id
_symmetry_equiv_pos_as_xyz
1 'y+1/2, x+1/2, -z'
2 '-y, x+1/2, -z'
3 'y+1/2, -x, -z'
4 '-y, -x, -z'
5 'x+1/2, y+1/2, -z'
6 '-x, y+1/2, -z'
7 'x+1/2, -y, -z'
8 '-x, -y, -z'
9 '-y+1/2, -x+1/2, z'
10 'y, -x+1/2, z'
11 '-y+1/2, x, z'
12 'y, x, z'
13 '-x+1/2, -y+1/2, z'
14 'x, -y+1/2, z'
15 '-x+1/2, y, z'
16 'x, y, z'
loop_
_atom_type_symbol
_atom_type_oxidation_number
Pr3+ 3
Fe2+ 2
P3- -3
O2- -2
loop_
_atom_site_label
_atom_site_type_symbol
_atom_site_symmetry_multiplicity
_atom_site_Wyckoff_symbol
_atom_site_fract_x
_atom_site_fract_y
_atom_site_fract_z
_atom_site_B_iso_or_equiv
_atom_site_occupancy
_atom_site_attached_hydrogens
Pr1 Pr3+ 2 c 0.25 0.25 0.14830(7) . 1. 0
Fe1 Fe2+ 2 b 0.75 0.25 0.5 . 1. 0
P1 P3- 2 c 0.25 0.25 0.6396(3) . 1. 0
O1 O2- 2 a 0.75 0.25 0 . 1. 0
loop_
_atom_site_aniso_label
_atom_site_aniso_type_symbol
_atom_site_aniso_B_11
_atom_site_aniso_B_22
_atom_site_aniso_B_33
_atom_site_aniso_B_12
_atom_site_aniso_B_13
_atom_site_aniso_B_23
Pr1 Pr3+ 0.342(7) 0.342(7) 0.50(1) 0 0 0
Fe1 Fe2+ 0.31(2) 0.31(2) 0.49(3) 0 0 0
P1 P3- 0.36(4) 0.36(4) 0.61(7) 0 0 0
O1 O2- 0.5(1) 0.5(1) 0.5(1) 0 0 0
#End of TTdata_80200-ICSD
