
#(C) 2019 by FIZ Karlsruhe - Leibniz Institute for Information Infrastructure.  All rights reserved.
data_85244-ICSD
_database_code_ICSD 85244
_audit_creation_date 1999-06-02
_chemical_name_systematic
'Ruthenium(IV) distrontium gadolinium copper copper(III) oxide'
_chemical_formula_structural 'Ru Sr2 Gd Cu2 O8'
_chemical_formula_sum 'Cu2 Gd1 O8 Ru1 Sr2'
_chemical_name_structure_type YBa2Cu3O7+x(tet)
_exptl_crystal_density_diffrn 6.69
_publ_section_title
'Crystal structure of a new series of 1212 type cuprate Ru Sr2 Ln Cu2 Oz'
loop_
_citation_id
_citation_journal_full
_citation_year
_citation_journal_volume
_citation_page_first
_citation_page_last
_citation_journal_id_ASTM
primary
'Physica C: Superconductivity and Ist Application (Amsterdam, Netherlands)' 1997 282 947 948 PHYCE6
loop_
_publ_author_name
'Tang, K.-B.'
'Qian, Y.-T.'
'Yang, L.'
'Zhao, Y.D.'
'Zhang, Y.-H.'
_cell_length_a 3.842(6)
_cell_length_b 3.842(6)
_cell_length_c 11.577(8)
_cell_angle_alpha 90.
_cell_angle_beta 90.
_cell_angle_gamma 90.
_cell_volume 170.89
_cell_formula_units_Z 1
_symmetry_space_group_name_H-M 'P 4/m m m'
_symmetry_Int_Tables_number 123
_refine_ls_R_factor_all 0.043
loop_
_symmetry_equiv_pos_site_id
_symmetry_equiv_pos_as_xyz
1 'y, x, -z'
2 '-y, -x, -z'
3 '-y, x, -z'
4 'y, -x, -z'
5 '-x, y, -z'
6 'x, -y, -z'
7 'x, y, -z'
8 '-x, -y, -z'
9 '-y, -x, z'
10 'y, x, z'
11 'y, -x, z'
12 '-y, x, z'
13 'x, -y, z'
14 '-x, y, z'
15 '-x, -y, z'
16 'x, y, z'
loop_
_atom_type_symbol
_atom_type_oxidation_number
Ru4+ 4
Sr2+ 2
Cu2+ 2.5
Gd3+ 3
O2- -2
loop_
_atom_site_label
_atom_site_type_symbol
_atom_site_symmetry_multiplicity
_atom_site_Wyckoff_symbol
_atom_site_fract_x
_atom_site_fract_y
_atom_site_fract_z
_atom_site_B_iso_or_equiv
_atom_site_occupancy
_atom_site_attached_hydrogens
Ru1 Ru4+ 1 a 0 0 0 0.56 1. 0
Sr1 Sr2+ 2 h 0.5 0.5 0.1924 0.86 1. 0
Cu1 Cu2+ 2 g 0 0 0.3540(2) 0.77 1. 0
Gd1 Gd3+ 1 d 0.5 0.5 0.5 0.62 1. 0
O1 O2- 2 f 0 0.5 0 1.2 1. 0
O2 O2- 2 g 0 0 0.1763(8) 3.64 1. 0
O3 O2- 4 i 0 0.5 0.3720(2) 2.69 1. 0
#End of TTdata_85244-ICSD