
#(C) 2019 by FIZ Karlsruhe - Leibniz Institute for Information Infrastructure.  All rights reserved.
data_86764-ICSD
_database_code_ICSD 86764
_audit_creation_date 2000-07-15
_chemical_name_systematic 'Zirconium telluride (1/3)'
_chemical_formula_structural 'Zr Te3'
_chemical_formula_sum 'Te3 Zr1'
_chemical_name_structure_type TiS3
_exptl_crystal_density_diffrn 6.87
_cell_measurement_temperature 100.
_publ_section_title
'The 63 K phase transition of Zr Te3 : a neutron diffraction study'
loop_
_citation_id
_citation_journal_full
_citation_year
_citation_journal_volume
_citation_page_first
_citation_page_last
_citation_journal_id_ASTM
primary 'Journal of Materials Chemistry' 1998 8 2869 2874 JMACEP
loop_
_publ_author_name
'Seshadri, R.'
'Suard, E.'
'Felser, C.'
'Finckh, E.W.'
'Maignan, A.'
'Tremel, W.'
_cell_length_a 5.8775(3)
_cell_length_b 3.9125(2)
_cell_length_c 10.0645(5)
_cell_angle_alpha 90.
_cell_angle_beta 97.835(3)
_cell_angle_gamma 90.
_cell_volume 229.28
_cell_formula_units_Z 2
_symmetry_space_group_name_H-M 'P 1 21/m 1'
_symmetry_Int_Tables_number 11
_refine_ls_R_factor_all 0.082
loop_
_symmetry_equiv_pos_site_id
_symmetry_equiv_pos_as_xyz
1 'x, -y+1/2, z'
2 '-x, -y, -z'
3 '-x, y+1/2, -z'
4 'x, y, z'
loop_
_atom_type_symbol
_atom_type_oxidation_number
Zr4+ 4
Te2- -2
Te1- -1
loop_
_atom_site_label
_atom_site_type_symbol
_atom_site_symmetry_multiplicity
_atom_site_Wyckoff_symbol
_atom_site_fract_x
_atom_site_fract_y
_atom_site_fract_z
_atom_site_B_iso_or_equiv
_atom_site_occupancy
_atom_site_attached_hydrogens
Zr1 Zr4+ 2 e 0.2882(5) 0.25 0.6648(3) 1.00(5) 1. 0
Te1 Te2- 2 e 0.7643(6) 0.25 0.5579(3) 0.84(6) 1. 0
Te2 Te1- 2 e 0.4297(5) 0.25 0.1650(3) 0.25(5) 1. 0
Te3 Te1- 2 e 0.9068(6) 0.25 0.1601(3) 0.46(5) 1. 0
#End of TTdata_86764-ICSD