
#(C) 2019 by FIZ Karlsruhe - Leibniz Institute for Information Infrastructure.  All rights reserved.
data_86960-ICSD
_database_code_ICSD 86960
_audit_creation_date 2000-07-15
_chemical_name_systematic 'Neodymium barium copper oxide (1/2/3/7)'
_chemical_formula_structural 'Nd Ba2 Cu3 O7'
_chemical_formula_sum 'Ba2 Cu3 Nd1 O7'
_chemical_name_structure_type YBa2Cu3O6+x(orh)
_exptl_crystal_density_diffrn 6.75
_publ_section_title

;
High temperature thermodynamic properties, orthorhombic/tetragonal transition
and phase stability of Gd Ba2 Cu3 Oy and related R123 compounds
;
loop_
_citation_id
_citation_journal_full
_citation_year
_citation_journal_volume
_citation_page_first
_citation_page_last
_citation_journal_id_ASTM
primary
'Physica C: Superconductivity and Ist Application (Amsterdam, Netherlands)' 1998 295 235 246 PHYCE6
loop_
_publ_author_name
'Prado, F.'
'Caneiro, A.'
'Serquis, A.'
_cell_length_a 3.8643(4)
_cell_length_b 3.9125(4)
_cell_length_c 11.749(2)
_cell_angle_alpha 90.
_cell_angle_beta 90.
_cell_angle_gamma 90.
_cell_volume 177.63
_cell_formula_units_Z 1
_symmetry_space_group_name_H-M 'P m m m'
_symmetry_Int_Tables_number 47
_refine_ls_R_factor_all 0.087
loop_
_symmetry_equiv_pos_site_id
_symmetry_equiv_pos_as_xyz
1 'x, -y, z'
2 '-x, y, z'
3 'x, y, -z'
4 '-x, -y, -z'
5 '-x, y, -z'
6 'x, -y, -z'
7 '-x, -y, z'
8 'x, y, z'
loop_
_atom_type_symbol
_atom_type_oxidation_number
Nd3+ 3
Ba2+ 2
Cu2+ 2.333
O2- -2
loop_
_atom_site_label
_atom_site_type_symbol
_atom_site_symmetry_multiplicity
_atom_site_Wyckoff_symbol
_atom_site_fract_x
_atom_site_fract_y
_atom_site_fract_z
_atom_site_B_iso_or_equiv
_atom_site_occupancy
_atom_site_attached_hydrogens
Nd1 Nd3+ 1 h 0.5 0.5 0.5 . 1. 0
Ba1 Ba2+ 2 t 0.5 0.5 0.1811(3) . 1. 0
Cu1 Cu2+ 1 a 0 0 0 . 1. 0
Cu2 Cu2+ 2 q 0 0 0.3499(6) . 1. 0
O1 O2- 1 e 0 0.5 0 . 1. 0
O2 O2- 2 s 0.5 0 0.371(3) . 1. 0
O3 O2- 2 r 0 0.5 0.362(2) . 1. 0
O4 O2- 2 q 0 0 0.156(4) . 1. 0
#End of TTdata_86960-ICSD