
#(C) 2019 by FIZ Karlsruhe - Leibniz Institute for Information Infrastructure.  All rights reserved.
data_88075-ICSD
_database_code_ICSD 88075
_audit_creation_date 2001-07-16
_chemical_name_systematic 'Yttrium germanide (1/3)'
_chemical_formula_structural 'Y Ge3'
_chemical_formula_sum 'Ge3 Y1'
_chemical_name_structure_type BaCuSn2
_exptl_crystal_density_diffrn 6.18
_publ_section_title
'Crystal structure of Y Ge3, Y Ge1.9 and a novel Y3 Ge4 compound'
loop_
_citation_id
_citation_journal_full
_citation_year
_citation_journal_volume
_citation_page_first
_citation_page_last
_citation_journal_id_ASTM
primary 'Journal of Alloys and Compounds' 1999 283 162 168 JALCEU
loop_
_publ_author_name
'Belyavina, N.M.'
'Markiv, V.Ya.'
'Speka, M.V.'
_cell_length_a 4.0490(8)
_cell_length_b 20.7790(30)
_cell_length_c 3.9184(8)
_cell_angle_alpha 90.
_cell_angle_beta 90.
_cell_angle_gamma 90.
_cell_volume 329.67
_cell_formula_units_Z 4
_symmetry_space_group_name_H-M 'C m c m'
_symmetry_Int_Tables_number 63
_refine_ls_R_factor_all 0.06
loop_
_symmetry_equiv_pos_site_id
_symmetry_equiv_pos_as_xyz
1 '-x, y, -z+1/2'
2 '-x, -y, z+1/2'
3 '-x, y, z'
4 '-x, -y, -z'
5 'x, -y, z+1/2'
6 'x, y, -z+1/2'
7 'x, -y, -z'
8 'x, y, z'
9 '-x+1/2, y+1/2, -z+1/2'
10 '-x+1/2, -y+1/2, z+1/2'
11 '-x+1/2, y+1/2, z'
12 '-x+1/2, -y+1/2, -z'
13 'x+1/2, -y+1/2, z+1/2'
14 'x+1/2, y+1/2, -z+1/2'
15 'x+1/2, -y+1/2, -z'
16 'x+1/2, y+1/2, z'
loop_
_atom_type_symbol
_atom_type_oxidation_number
Y0+ 0
Ge0+ 0
loop_
_atom_site_label
_atom_site_type_symbol
_atom_site_symmetry_multiplicity
_atom_site_Wyckoff_symbol
_atom_site_fract_x
_atom_site_fract_y
_atom_site_fract_z
_atom_site_B_iso_or_equiv
_atom_site_occupancy
_atom_site_attached_hydrogens
Y1 Y0+ 4 c 0 0.4181(4) 0.25 1.81(1) 1. 0
Ge1 Ge0+ 4 c 0 0.0456(5) 0.25 1.81(1) 1. 0
Ge2 Ge0+ 4 c 0.5 0.1930(5) 0.25 1.81(1) 1. 0
Ge3 Ge0+ 4 c 0.5 0.3102(5) 0.25 1.81(1) 1. 0
#End of TTdata_88075-ICSD