
#(C) 2019 by FIZ Karlsruhe - Leibniz Institute for Information Infrastructure.  All rights reserved.
data_90703-ICSD
_database_code_ICSD 90703
_audit_creation_date 2002-04-01
_audit_update_record 2008-02-01
_chemical_name_systematic 'Barium silicide (24/100)'
_chemical_formula_structural 'Ba24 Si100'
_chemical_formula_sum 'Ba24 Si100'
_chemical_name_structure_type K6Sn25
_exptl_crystal_density_diffrn 3.64
_publ_section_title
'High-pressure synthesis and structure of a new silicon clathrate Ba24 Si100'
loop_
_citation_id
_citation_journal_full
_citation_year
_citation_journal_volume
_citation_page_first
_citation_page_last
_citation_journal_id_ASTM
primary 'Journal of Organometallic Chemistry' 2000 611 543 546 JORCAI
loop_
_publ_author_name
'Fukuoka, H.'
'Ueno, K.'
'Yamanaka, S.'
_cell_length_a 14.0685(2)
_cell_length_b 14.0685(2)
_cell_length_c 14.0685(2)
_cell_angle_alpha 90.
_cell_angle_beta 90.
_cell_angle_gamma 90.
_cell_volume 2784.48
_cell_formula_units_Z 1
_symmetry_space_group_name_H-M 'P 41 3 2'
_symmetry_Int_Tables_number 213
_refine_ls_R_factor_all 0.035
loop_
_symmetry_equiv_pos_site_id
_symmetry_equiv_pos_as_xyz
1 '-z+1/4, y+3/4, x+1/4'
2 'z+1/4, -y+1/4, x+3/4'
3 'z+3/4, y+1/4, -x+1/4'
4 '-z+3/4, -y+3/4, -x+3/4'
5 'y+3/4, x+1/4, -z+1/4'
6 '-y+1/4, x+3/4, z+1/4'
7 'y+1/4, -x+1/4, z+3/4'
8 '-y+3/4, -x+3/4, -z+3/4'
9 'x+1/4, -z+1/4, y+3/4'
10 'x+3/4, z+1/4, -y+1/4'
11 '-x+1/4, z+3/4, y+1/4'
12 '-x+3/4, -z+3/4, -y+3/4'
13 'z+1/2, -x+1/2, -y'
14 '-z+1/2, -x, y+1/2'
15 '-z, x+1/2, -y+1/2'
16 'z, x, y'
17 '-y, z+1/2, -x+1/2'
18 'y+1/2, -z+1/2, -x'
19 '-y+1/2, -z, x+1/2'
20 'y, z, x'
21 '-x+1/2, -y, z+1/2'
22 '-x, y+1/2, -z+1/2'
23 'x+1/2, -y+1/2, -z'
24 'x, y, z'
loop_
_atom_type_symbol
_atom_type_oxidation_number
Si0+ 0
Ba0+ 0
loop_
_atom_site_label
_atom_site_type_symbol
_atom_site_symmetry_multiplicity
_atom_site_Wyckoff_symbol
_atom_site_fract_x
_atom_site_fract_y
_atom_site_fract_z
_atom_site_B_iso_or_equiv
_atom_site_occupancy
_atom_site_attached_hydrogens
Si1 Si0+ 8 c 0.0362(6) 0.0362(6) 0.0362(6) 1.3(3) 1. 0
Si2 Si0+ 24 e 0.2038(5) 0.0427(5) 0.0000(6) 0.7(2) 1. 0
Si3 Si0+ 12 d 0.125 0.1696(6) 0.4196(6) 2.7(3) 1. 0
Si4 Si0+ 24 e 0.2387(5) 0.9394(7) 0.8752(6) 1.1(2) 1. 0
Si5 Si0+ 24 e 0.4156(5) 0.8605(5) 0.0769(5) 0.7(2) 1. 0
Si6 Si0+ 8 c 0.3256(6) 0.3256(6) 0.3256(6) 2.8(4) 1. 0
Ba1 Ba0+ 8 c 0.1887(2) 0.1887(2) 0.1887(2) 1.37(7) 1. 0
Ba2 Ba0+ 4 b 0.875 0.875 0.875 1.7(1) 1. 0
Ba3 Ba0+ 12 d 0.125 0.8072(1) 0.0572(1) 2.34(7) 1. 0
#End of TTdata_90703-ICSD