
#(C) 2019 by FIZ Karlsruhe - Leibniz Institute for Information Infrastructure.  All rights reserved.
data_94377-ICSD
_database_code_ICSD 94377
_audit_creation_date 2003-10-01
_chemical_name_systematic 'Praseodymium dibarium copper(III) dicopper oxide'
_chemical_formula_structural 'Pr Ba2 Cu3 O7'
_chemical_formula_sum 'Ba2 Cu3 O7 Pr1'
_chemical_name_structure_type YBa2Cu3O6+x(orh)
_exptl_crystal_density_diffrn 6.62
_publ_section_title

;
Crystallographic, microstructural and magnetic properties of polycrystalline
Pr Ba2 Cu3 O7-d
;
loop_
_citation_id
_citation_journal_full
_citation_year
_citation_journal_volume
_citation_page_first
_citation_page_last
_citation_journal_id_ASTM
primary 'Superconductor Science and Technology' 2001 14 522 527 SUSTEF
loop_
_publ_author_name
'Lisboa-Filho, P.N.'
'Zanetti, S.M.'
'Mombru, A.W.'
'Nascente, P.A.P.'
'Leite, E.R.'
'Ortiz, W.A.'
'Araujo Moreira, F.M.'
_cell_length_a 3.90574(3)
_cell_length_b 3.90574(3)
_cell_length_c 11.80355(5)
_cell_angle_alpha 90
_cell_angle_beta 90
_cell_angle_gamma 90
_cell_volume 180.06
_cell_formula_units_Z 1
_symmetry_space_group_name_H-M 'P m m m'
_symmetry_Int_Tables_number 47
_refine_ls_R_factor_all 0.0518
loop_
_symmetry_equiv_pos_site_id
_symmetry_equiv_pos_as_xyz
1 'x, -y, z'
2 '-x, y, z'
3 'x, y, -z'
4 '-x, -y, -z'
5 '-x, y, -z'
6 'x, -y, -z'
7 '-x, -y, z'
8 'x, y, z'
loop_
_atom_type_symbol
_atom_type_oxidation_number
Pr3+ 3
Ba2+ 2
Cu2+ 2.333
O2- -2
loop_
_atom_site_label
_atom_site_type_symbol
_atom_site_symmetry_multiplicity
_atom_site_Wyckoff_symbol
_atom_site_fract_x
_atom_site_fract_y
_atom_site_fract_z
_atom_site_B_iso_or_equiv
_atom_site_occupancy
_atom_site_attached_hydrogens
Pr1 Pr3+ 1 h 0.5 0.5 0.5 . 1. 0
Ba1 Ba2+ 2 t 0.5 0.5 0.1894(2) . 1. 0
Cu1 Cu2+ 1 a 0 0 0 . 1. 0
Cu2 Cu2+ 2 q 0 0 0.3516(5) . 1. 0
O1 O2- 2 q 0 0 0.163(2) . 1. 0
O2 O2- 2 s 0.5 0 0.362(6) . 1. 0
O3 O2- 2 r 0 0.5 0.373(5) . 1. 0
O4 O2- 1 b 0.5 0 0 . 1. 0
#End of TTdata_94377-ICSD