
#(C) 2019 by FIZ Karlsruhe - Leibniz Institute for Information Infrastructure.  All rights reserved.
data_96016-ICSD
_database_code_ICSD 96016
_audit_creation_date 2004-04-01
_chemical_name_systematic 'Yttrium barium copper oxide (1/2/3/6.5)'
_chemical_formula_structural 'Y Ba2 Cu3 O6.5'
_chemical_formula_sum 'Ba2 Cu3 O6.5 Y1'
_chemical_name_structure_type YBa2Cu3O6.5
_exptl_crystal_density_diffrn 6.23
_publ_section_title

;
Main- and superstructure by X-ray scattering for annealed single crystal of Y
Ba2 Cu3 O6.5
;
loop_
_citation_id
_citation_journal_full
_citation_year
_citation_journal_volume
_citation_page_first
_citation_page_last
_citation_journal_id_ASTM
primary 'Molecular Physics Reports' 2001 34 121 128 MPREFZ
loop_
_publ_author_name
'Grybos, J.'
'Wabia, M.'
'Guskos, N.'
'Typek, J.'
_cell_length_a 7.680(2)
_cell_length_b 3.890(1)
_cell_length_c 11.753(4)
_cell_angle_alpha 90
_cell_angle_beta 90
_cell_angle_gamma 90
_cell_volume 351.12
_cell_formula_units_Z 2
_symmetry_space_group_name_H-M 'P m m m'
_symmetry_Int_Tables_number 47
loop_
_symmetry_equiv_pos_site_id
_symmetry_equiv_pos_as_xyz
1 'x, -y, z'
2 '-x, y, z'
3 'x, y, -z'
4 '-x, -y, -z'
5 '-x, y, -z'
6 'x, -y, -z'
7 '-x, -y, z'
8 'x, y, z'
loop_
_atom_type_symbol
_atom_type_oxidation_number
Y3+ 3
Ba2+ 2
Cu2+ 2
O2- -2
loop_
_atom_site_label
_atom_site_type_symbol
_atom_site_symmetry_multiplicity
_atom_site_Wyckoff_symbol
_atom_site_fract_x
_atom_site_fract_y
_atom_site_fract_z
_atom_site_B_iso_or_equiv
_atom_site_occupancy
_atom_site_attached_hydrogens
Y1 Y3+ 2 l 0.2510(2) 0.5 0.5 . 1. 0
Ba1 Ba2+ 4 x 0.2469(1) 0.5 0.1884(1) . 1. 0
Cu1 Cu2+ 1 a 0 0 0 . 1. 0
Cu2 Cu2+ 1 b 0.5 0 0 . 1. 0
Cu3 Cu2+ 2 q 0 0 0.3584(3) . 1. 0
Cu4 Cu2+ 2 s 0.5 0 0.3560(3) . 1. 0
O1 O2- 1 e 0 0.5 0 . 1. 0
O2 O2- 4 w 0.25 0 0.3793(13) . 1. 0
O3 O2- 2 r 0 0.5 0.3768(13) . 1. 0
O4 O2- 2 t 0.5 0.5 0.3768(13) . 1. 0
O5 O2- 2 q 0 0 0.1581(10) . 1. 0
O6 O2- 2 s 0.5 0 0.1528(10) . 1. 0
#End of TTdata_96016-ICSD