
#(C) 2019 by FIZ Karlsruhe - Leibniz Institute for Information Infrastructure.  All rights reserved.
data_990-ICSD
_database_code_ICSD 990
_audit_creation_date 1980-01-01
_audit_update_record 2016-02-01
_chemical_name_systematic 'Ruthenium(III) antimonide'
_chemical_formula_structural 'Ru Sb'
_chemical_formula_sum 'Ru1 Sb1'
_chemical_name_structure_type MnP
_exptl_crystal_density_diffrn 10.19
_publ_section_title 'On the Mn P type structure of Ru Sb and Rh Sb'
loop_
_citation_id
_citation_journal_full
_citation_year
_citation_journal_volume
_citation_page_first
_citation_page_last
_citation_journal_id_ASTM
primary 'Acta Chemica Scandinavica, Series A: Physical and Inorganic Chemistry'
1977 31 249 252 ACAPCT
loop_
_publ_author_name
'Endresen, K.'
'Furuseth, S.'
'Selte, K.'
'Kjekshus, A.'
'Rakke, T.'
'Andresen, A.F.'
_cell_length_a 5.9608(13)
_cell_length_b 3.7023(9)
_cell_length_c 6.5797(13)
_cell_angle_alpha 90.
_cell_angle_beta 90.
_cell_angle_gamma 90.
_cell_volume 145.21
_cell_formula_units_Z 4
_symmetry_space_group_name_H-M 'P n m a'
_symmetry_Int_Tables_number 62
loop_
_symmetry_equiv_pos_site_id
_symmetry_equiv_pos_as_xyz
1 'x+1/2, y, -z+1/2'
2 'x, -y+1/2, z'
3 '-x+1/2, y+1/2, z+1/2'
4 '-x, -y, -z'
5 '-x+1/2, -y, z+1/2'
6 '-x, y+1/2, -z'
7 'x+1/2, -y+1/2, -z+1/2'
8 'x, y, z'
loop_
_atom_type_symbol
_atom_type_oxidation_number
Ru3+ 3
Sb3- -3
loop_
_atom_site_label
_atom_site_type_symbol
_atom_site_symmetry_multiplicity
_atom_site_Wyckoff_symbol
_atom_site_fract_x
_atom_site_fract_y
_atom_site_fract_z
_atom_site_B_iso_or_equiv
_atom_site_occupancy
_atom_site_attached_hydrogens
Ru1 Ru3+ 4 c 0.0053(10) 0.25 0.2037(7) . 1. 0
Sb1 Sb3- 4 c 0.1992(8) 0.25 0.5808(10) . 1. 0
#End of TTdata_990-ICSD
