
#(C) 2019 by FIZ Karlsruhe - Leibniz Institute for Information Infrastructure.  All rights reserved.
data_102108-ICSD
_database_code_ICSD 102108
_audit_creation_date 2004-04-01
_audit_update_record 2008-08-01
_chemical_name_systematic 'Cerium cobalt indium (1/1/5)'
_chemical_formula_structural 'Ce Co In5'
_chemical_formula_sum 'Ce1 Co1 In5'
_chemical_name_structure_type CoHoGa5
_exptl_crystal_density_diffrn 8.04
_publ_section_title

;
Crystalline structures of compounds R Co In5 (R= Ce, Pr, Nd, Sm, Gd, Tb, Dy,
Ho, Y) and R2 Co In5 (R= Ce, Pr, Nd, Sm, Gd, Dy, Dy, Ho, Er, Tm, Y)
;
loop_
_citation_id
_citation_journal_full
_citation_year
_citation_journal_volume
_citation_page_first
_citation_page_last
_citation_journal_id_ASTM
primary 'Izvestiya Akademii Nauk SSSR, Metally' 1989 1989 213 215 IZNMAQ
loop_
_publ_author_name
'Kal'ichak, Ya.M. (Kalichak, Ya.M.)'
'Zaremba, V.I.'
'Baranyak, V.M.'
'Bruskov, V.A.'
'Zavalii, P.Yu.'
_cell_length_a 4.601(1)
_cell_length_b 4.601
_cell_length_c 7.540(2)
_cell_angle_alpha 90.
_cell_angle_beta 90.
_cell_angle_gamma 90.
_cell_volume 159.62
_cell_formula_units_Z 1
_symmetry_space_group_name_H-M 'P 4/m m m'
_symmetry_Int_Tables_number 123
_refine_ls_R_factor_all 0.075
loop_
_symmetry_equiv_pos_site_id
_symmetry_equiv_pos_as_xyz
1 'y, x, -z'
2 '-y, -x, -z'
3 '-y, x, -z'
4 'y, -x, -z'
5 '-x, y, -z'
6 'x, -y, -z'
7 'x, y, -z'
8 '-x, -y, -z'
9 '-y, -x, z'
10 'y, x, z'
11 'y, -x, z'
12 '-y, x, z'
13 'x, -y, z'
14 '-x, y, z'
15 '-x, -y, z'
16 'x, y, z'
loop_
_atom_type_symbol
_atom_type_oxidation_number
Ce0+ 0
Co0+ 0
In0+ 0
loop_
_atom_site_label
_atom_site_type_symbol
_atom_site_symmetry_multiplicity
_atom_site_Wyckoff_symbol
_atom_site_fract_x
_atom_site_fract_y
_atom_site_fract_z
_atom_site_B_iso_or_equiv
_atom_site_occupancy
_atom_site_attached_hydrogens
Ce1 Ce0+ 1 a 0 0 0 1.76 1. 0
Co1 Co0+ 1 b 0 0 0.5 2.63 1. 0
In1 In0+ 1 c 0.5 0.5 0 .88 1. 0
In2 In0+ 4 i 0 0.5 0.3103 .88 1. 0
#End of TTdata_102108-ICSD