
#(C) 2019 by FIZ Karlsruhe - Leibniz Institute for Information Infrastructure.  All rights reserved.
data_104499-ICSD
_database_code_ICSD 104499
_audit_creation_date 2004-10-01
_audit_update_record 2018-02-01
_chemical_name_systematic 'Iridium molybdenum (1/1)'
_chemical_formula_structural 'Ir Mo'
_chemical_formula_sum 'Ir1 Mo1'
_chemical_name_structure_type AuCd
_exptl_crystal_density_diffrn 16.4
_publ_section_title

;
Ordered AB and AB3 phases in T6-T9 alloy systems and a modified Mo-lr phase
diagram
;
_publ_section_comment 'Cell and Type only determined'
loop_
_citation_id
_citation_journal_full
_citation_year
_citation_journal_volume
_citation_page_first
_citation_page_last
_citation_journal_id_ASTM
primary 'Journal of the Less-Common Metals' 1966 10 147 150 JCOMAH
loop_
_publ_author_name
'Giessen, B.C.'
'Jaehnigen, U.'
'Grant, N.J.'
_cell_length_a 2.752
_cell_length_b 4.804
_cell_length_c 4.429
_cell_angle_alpha 90.
_cell_angle_beta 90.
_cell_angle_gamma 90.
_cell_volume 58.55
_cell_formula_units_Z 2
_symmetry_space_group_name_H-M 'P m c m'
_symmetry_Int_Tables_number 51
loop_
_symmetry_equiv_pos_site_id
_symmetry_equiv_pos_as_xyz
1 '-x, y, -z+1/2'
2 '-x, -y, z+1/2'
3 '-x, y, z'
4 '-x, -y, -z'
5 'x, -y, z+1/2'
6 'x, y, -z+1/2'
7 'x, -y, -z'
8 'x, y, z'
loop_
_atom_type_symbol
_atom_type_oxidation_number
Ir0+ 0
Mo0+ 0
loop_
_atom_site_label
_atom_site_type_symbol
_atom_site_symmetry_multiplicity
_atom_site_Wyckoff_symbol
_atom_site_fract_x
_atom_site_fract_y
_atom_site_fract_z
_atom_site_B_iso_or_equiv
_atom_site_occupancy
_atom_site_attached_hydrogens
Ir1 Ir0+ 2 f 0.5 0.667 0.25 . 1. 0
Mo1 Mo0+ 2 e 0 0.167 0.25 . 1. 0
#End of TTdata_104499-ICSD