
#(C) 2019 by FIZ Karlsruhe - Leibniz Institute for Information Infrastructure.  All rights reserved.
data_104898-ICSD
_database_code_ICSD 104898
_audit_creation_date 2004-10-01
_audit_update_record 2013-08-01
_chemical_name_systematic 'Magnesium zinc (2/11)'
_chemical_formula_structural 'Mg2 Zn11'
_chemical_formula_sum 'Mg2 Zn11'
_chemical_name_structure_type Mg2Zn11
_exptl_crystal_density_diffrn 6.11
_publ_section_title

;
Die Kristallstruktur des Mg2 Zn11. Isomorphie zwischen Mg2 Zn11 und Mg2 Cu6
Al5
;
loop_
_citation_id
_citation_journal_full
_citation_year
_citation_journal_volume
_citation_page_first
_citation_page_last
_citation_journal_id_ASTM
primary 'Acta Chemica Scandinavica ' 1949 3 835 843 ACSAA4
loop_
_publ_author_name
'Samson, S.'
_cell_length_a 8.552(5)
_cell_length_b 8.552
_cell_length_c 8.552
_cell_angle_alpha 90.
_cell_angle_beta 90.
_cell_angle_gamma 90.
_cell_volume 625.47
_cell_formula_units_Z 3
_symmetry_space_group_name_H-M 'P m -3'
_symmetry_Int_Tables_number 200
loop_
_symmetry_equiv_pos_site_id
_symmetry_equiv_pos_as_xyz
1 '-z, x, y'
2 'z, x, -y'
3 'z, -x, y'
4 '-z, -x, -y'
5 'y, -z, x'
6 '-y, z, x'
7 'y, z, -x'
8 '-y, -z, -x'
9 'x, y, -z'
10 'x, -y, z'
11 '-x, y, z'
12 '-x, -y, -z'
13 'z, -x, -y'
14 '-z, -x, y'
15 '-z, x, -y'
16 'z, x, y'
17 '-y, z, -x'
18 'y, -z, -x'
19 '-y, -z, x'
20 'y, z, x'
21 '-x, -y, z'
22 '-x, y, -z'
23 'x, -y, -z'
24 'x, y, z'
loop_
_atom_type_symbol
_atom_type_oxidation_number
Mg0+ 0
Zn0+ 0
loop_
_atom_site_label
_atom_site_type_symbol
_atom_site_symmetry_multiplicity
_atom_site_Wyckoff_symbol
_atom_site_fract_x
_atom_site_fract_y
_atom_site_fract_z
_atom_site_B_iso_or_equiv
_atom_site_occupancy
_atom_site_attached_hydrogens
Mg1 Mg0+ 6 f 0.32 0 0.5 . 1. 0
Zn1 Zn0+ 1 b 0.5 0.5 0.5 . 1. 0
Zn2 Zn0+ 6 e 0.235 0 0 . 1. 0
Zn3 Zn0+ 6 g 0.16 0.5 0 . 1. 0
Zn4 Zn0+ 8 i 0.222 0.222 0.222 . 1. 0
Zn5 Zn0+ 12 k 0.5 0.243 0.343 . 1. 0
#End of TTdata_104898-ICSD
