
#(C) 2020 by FIZ Karlsruhe - Leibniz Institute for Information Infrastructure.  All rights reserved.
data_105683-ICSD
_database_code_ICSD 105683
_audit_creation_date 2004-10-01
_audit_update_record 2017-08-01
_chemical_name_common 'Palladium tin (1/1)'
_chemical_formula_structural 'Pd Sn'
_chemical_formula_sum 'Pd1 Sn1'
_chemical_name_structure_type MnP#FeAs
_exptl_crystal_density_diffrn 10.03
_citation_title

;
Zur Kenntnis des Aufbaus und der Kristallchemie einiger Edelmetallsysteme
(Palladium-Blei, Palladium-Zinn, Iridium-Zinn, Rhodium-Zinn, Platin-Blei)
;
loop_
_citation_id
_citation_journal_full
_citation_year
_citation_journal_volume
_citation_page_first
_citation_page_last
_citation_journal_id_ASTM
primary 'Zeitschrift fuer Metallkunde' 1946 37 137 145 ZEMTAE
loop_
_citation_author_citation_id
_citation_author_name
primary 'Nowotny, Hans'
primary 'Schubert, Konrad'
primary 'Dettinger, Ursula'
_cell_length_a 6.31
_cell_length_b 3.86
_cell_length_c 6.12
_cell_angle_alpha 90.
_cell_angle_beta 90.
_cell_angle_gamma 90.
_cell_volume 149.06
_cell_formula_units_Z 4
_space_group_name_H-M_alt 'P c m n'
_space_group_IT_number 62
loop_
_space_group_symop_id
_space_group_symop_operation_xyz
1 '-x+1/2, y, z+1/2'
2 'x, -y+1/2, z'
3 'x+1/2, y+1/2, -z+1/2'
4 '-x, -y, -z'
5 'x+1/2, -y, -z+1/2'
6 '-x, y+1/2, -z'
7 '-x+1/2, -y+1/2, z+1/2'
8 'x, y, z'
loop_
_atom_type_symbol
_atom_type_oxidation_number
Pd0+ 0
Sn0+ 0
loop_
_atom_site_label
_atom_site_type_symbol
_atom_site_symmetry_multiplicity
_atom_site_Wyckoff_symbol
_atom_site_fract_x
_atom_site_fract_y
_atom_site_fract_z
_atom_site_B_iso_or_equiv
_atom_site_occupancy
Pd1 Pd0+ 4 c 0.182 0.25 0.007 . 1.
Sn1 Sn0+ 4 c 0.59 0.25 0.182 . 1.
#End of TTdata_105683-ICSD