
#(C) 2019 by FIZ Karlsruhe - Leibniz Institute for Information Infrastructure.  All rights reserved.
data_106469-ICSD
_database_code_ICSD 106469
_audit_creation_date 2005-04-01
_audit_update_record 2011-02-01
_chemical_name_systematic 'Cobalt gallium uranium (1/5/1)'
_chemical_formula_structural 'Co Ga5 U'
_chemical_formula_sum 'Co1 Ga5 U1'
_chemical_name_structure_type CoHoGa5
_exptl_crystal_density_diffrn 8.9
_publ_section_title
'Magnetism of ternary compounds U-T-Ga (T= transition elements)'
loop_
_citation_id
_citation_journal_full
_citation_year
_citation_journal_volume
_citation_page_first
_citation_page_last
_citation_journal_id_ASTM
primary 'Journal of Magnetism and Magnetic Materials' 1992 104 57 59 JMMMDC
loop_
_publ_author_name
'Noguchi, S.'
'Okuda, K.'
_cell_length_a 4.233
_cell_length_b 4.233
_cell_length_c 6.723
_cell_angle_alpha 90.
_cell_angle_beta 90.
_cell_angle_gamma 90.
_cell_volume 120.46
_cell_formula_units_Z 1
_symmetry_space_group_name_H-M 'P 4/m m m'
_symmetry_Int_Tables_number 123
loop_
_symmetry_equiv_pos_site_id
_symmetry_equiv_pos_as_xyz
1 'y, x, -z'
2 '-y, -x, -z'
3 '-y, x, -z'
4 'y, -x, -z'
5 '-x, y, -z'
6 'x, -y, -z'
7 'x, y, -z'
8 '-x, -y, -z'
9 '-y, -x, z'
10 'y, x, z'
11 'y, -x, z'
12 '-y, x, z'
13 'x, -y, z'
14 '-x, y, z'
15 '-x, -y, z'
16 'x, y, z'
loop_
_atom_type_symbol
_atom_type_oxidation_number
Co0+ 0
Ga0+ 0
U0+ 0
loop_
_atom_site_label
_atom_site_type_symbol
_atom_site_symmetry_multiplicity
_atom_site_Wyckoff_symbol
_atom_site_fract_x
_atom_site_fract_y
_atom_site_fract_z
_atom_site_B_iso_or_equiv
_atom_site_occupancy
_atom_site_attached_hydrogens
Co1 Co0+ 1 b 0 0 0.5 . 1. 0
Ga1 Ga0+ 1 c 0.5 0.5 0 . 1. 0
Ga2 Ga0+ 4 i 0 0.5 0.3048 . 1. 0
U1 U0+ 1 a 0 0 0 . 1. 0
#End of TTdata_106469-ICSD
