
#(C) 2019 by FIZ Karlsruhe - Leibniz Institute for Information Infrastructure.  All rights reserved.
data_110778-ICSD
_database_code_ICSD 110778
_audit_creation_date 2010-02-01
_chemical_name_systematic 'Cerium rhodium indium (1/1/5) - HP'
_chemical_formula_structural 'Ce Rh In5'
_chemical_formula_sum 'Ce1 In5 Rh1'
_chemical_name_structure_type CoHoGa5
_exptl_crystal_density_diffrn 8.74
_cell_measurement_temperature 295.
_cell_measurement_pressure 3970000.
_publ_section_title 'Anisotropic elastic properties of Ce Rh In5'
loop_
_citation_id
_citation_journal_full
_citation_year
_citation_journal_volume
_citation_page_first
_citation_page_last
_citation_journal_id_ASTM
primary 'Physical Review B: Condensed Matter and Materials Physics' 2004 69
014515-1 014515-6 PRBMDO
loop_
_publ_author_name
'Kumar, R.S.'
'Kohlmann, H.'
'Light, B.E.'
'Cornelius, A.L.'
'Raghavan, V.'
'Darling, T.W.'
'Sarrao, J.L.'
_cell_length_a 4.5718(3)
_cell_length_b 4.5718(3)
_cell_length_c 7.409(1)
_cell_angle_alpha 90.
_cell_angle_beta 90.
_cell_angle_gamma 90.
_cell_volume 154.86
_cell_formula_units_Z 1
_symmetry_space_group_name_H-M 'P 4/m m m'
_symmetry_Int_Tables_number 123
_refine_ls_R_factor_all 0.026
loop_
_symmetry_equiv_pos_site_id
_symmetry_equiv_pos_as_xyz
1 'y, x, -z'
2 '-y, -x, -z'
3 '-y, x, -z'
4 'y, -x, -z'
5 '-x, y, -z'
6 'x, -y, -z'
7 'x, y, -z'
8 '-x, -y, -z'
9 '-y, -x, z'
10 'y, x, z'
11 'y, -x, z'
12 '-y, x, z'
13 'x, -y, z'
14 '-x, y, z'
15 '-x, -y, z'
16 'x, y, z'
loop_
_atom_type_symbol
_atom_type_oxidation_number
Ce0+ 0
Rh0+ 0
In0+ 0
loop_
_atom_site_label
_atom_site_type_symbol
_atom_site_symmetry_multiplicity
_atom_site_Wyckoff_symbol
_atom_site_fract_x
_atom_site_fract_y
_atom_site_fract_z
_atom_site_B_iso_or_equiv
_atom_site_occupancy
_atom_site_attached_hydrogens
Ce1 Ce0+ 1 a 0 0 0 0.5(2) 1. 0
Rh1 Rh0+ 1 b 0 0 0.5 1.3(3) 1. 0
In1 In0+ 1 c 0.5 0.5 0 3.8(4) 1. 0
In2 In0+ 4 i 0 0.5 0.3049(4) 1.3(1) 1. 0
#End of TTdata_110778-ICSD
