
#(C) 2019 by FIZ Karlsruhe - Leibniz Institute for Information Infrastructure.  All rights reserved.
data_15016-ICSD
_database_code_ICSD 15016
_audit_creation_date 1980-01-01
_audit_update_record 2012-08-01
_chemical_name_systematic 'Palladium silicide (1/1)'
_chemical_formula_structural 'Pd Si'
_chemical_formula_sum 'Pd1 Si1'
_chemical_name_structure_type MnP
_exptl_crystal_density_diffrn 7.62
_publ_section_title 'Note on the crystal structures of Ru5 Si3 and Pd Si'
loop_
_citation_id
_citation_journal_full
_citation_year
_citation_journal_volume
_citation_page_first
_citation_page_last
_citation_journal_id_ASTM
primary 'Acta Chemica Scandinavica ' 1970 24 1466 1468 ACSAA4
loop_
_publ_author_name
'Engstroem, I.'
_cell_length_a 5.6173(10)
_cell_length_b 3.3909(6)
_cell_length_c 6.1534(12)
_cell_angle_alpha 90.
_cell_angle_beta 90.
_cell_angle_gamma 90.
_cell_volume 117.21
_cell_formula_units_Z 4
_symmetry_space_group_name_H-M 'P n m a'
_symmetry_Int_Tables_number 62
_refine_ls_R_factor_all 0.12
loop_
_symmetry_equiv_pos_site_id
_symmetry_equiv_pos_as_xyz
1 'x+1/2, y, -z+1/2'
2 'x, -y+1/2, z'
3 '-x+1/2, y+1/2, z+1/2'
4 '-x, -y, -z'
5 '-x+1/2, -y, z+1/2'
6 '-x, y+1/2, -z'
7 'x+1/2, -y+1/2, -z+1/2'
8 'x, y, z'
loop_
_atom_type_symbol
_atom_type_oxidation_number
Pd0+ 0
Si0+ 0
loop_
_atom_site_label
_atom_site_type_symbol
_atom_site_symmetry_multiplicity
_atom_site_Wyckoff_symbol
_atom_site_fract_x
_atom_site_fract_y
_atom_site_fract_z
_atom_site_B_iso_or_equiv
_atom_site_occupancy
_atom_site_attached_hydrogens
Pd1 Pd0+ 4 c 0.0043(3) 0.25 0.1906(3) 0.27 1. 0
Si1 Si0+ 4 c 0.1770(14) 0.25 0.5722(15) 0.33 1. 0
#End of TTdata_15016-ICSD
