
#(C) 2019 by FIZ Karlsruhe - Leibniz Institute for Information Infrastructure.  All rights reserved.
data_150225-ICSD
_database_code_ICSD 150225
_audit_creation_date 2006-04-01
_chemical_name_systematic 'Cerium iridium indide (1/1/5)'
_chemical_formula_structural 'Ce Ir In5'
_chemical_formula_sum 'Ce1 In5 Ir1'
_chemical_name_structure_type CoHoGa5
_exptl_crystal_density_diffrn 9.2
_publ_section_title

;
Crystal growth and intergrowth structure of the new heavy fermion materials Ce
Ir In5 and Ce Rh In5
;
loop_
_citation_id
_citation_journal_full
_citation_year
_citation_journal_volume
_citation_page_first
_citation_page_last
_citation_journal_id_ASTM
primary 'Journal of Solid State Electrochemistry' 2001 158 25 33 JSSEFS
loop_
_publ_author_name
'Moshopoulou, E.G.'
'Fisk, Z.'
'Sarrao, J.L.'
'Thompson, J.D.'
_cell_length_a 4.674(1)
_cell_length_b 4.674(1)
_cell_length_c 7.501(5)
_cell_angle_alpha 90.
_cell_angle_beta 90.
_cell_angle_gamma 90.
_cell_volume 163.87
_cell_formula_units_Z 1
_symmetry_space_group_name_H-M 'P 4/m m m'
_symmetry_Int_Tables_number 123
_refine_ls_R_factor_all 0.051
loop_
_symmetry_equiv_pos_site_id
_symmetry_equiv_pos_as_xyz
1 'y, x, -z'
2 '-y, -x, -z'
3 '-y, x, -z'
4 'y, -x, -z'
5 '-x, y, -z'
6 'x, -y, -z'
7 'x, y, -z'
8 '-x, -y, -z'
9 '-y, -x, z'
10 'y, x, z'
11 'y, -x, z'
12 '-y, x, z'
13 'x, -y, z'
14 '-x, y, z'
15 '-x, -y, z'
16 'x, y, z'
loop_
_atom_type_symbol
_atom_type_oxidation_number
Ce0+ 0
Ir0+ 0
In0+ 0
loop_
_atom_site_label
_atom_site_type_symbol
_atom_site_symmetry_multiplicity
_atom_site_Wyckoff_symbol
_atom_site_fract_x
_atom_site_fract_y
_atom_site_fract_z
_atom_site_B_iso_or_equiv
_atom_site_occupancy
_atom_site_attached_hydrogens
Ce1 Ce0+ 1 a 0 0 0 . 1. 0
Ir1 Ir0+ 1 b 0 0 0.5 . 1. 0
In1 In0+ 1 c 0.5 0.5 0 . 1. 0
In2 In0+ 4 i 0 0.5 0.30524(18) . 1. 0
loop_
_atom_site_aniso_label
_atom_site_aniso_type_symbol
_atom_site_aniso_U_11
_atom_site_aniso_U_22
_atom_site_aniso_U_33
_atom_site_aniso_U_12
_atom_site_aniso_U_13
_atom_site_aniso_U_23
Ce1 Ce0+ 0.00452(63) 0.00452(63) 0.00452(63) 0. 0. 0.
Ir1 Ir0+ 0.00315(36) 0.00315(36) 0.00539(46) 0. 0. 0.
In1 In0+ 0.00748(80) 0.00748(80) 0.0159(12) 0. 0. 0.
In2 In0+ 0.01606(75) 0.00478(62) 0.00755(59) 0. 0. 0.
#End of TTdata_150225-ICSD