
#(C) 2019 by FIZ Karlsruhe - Leibniz Institute for Information Infrastructure.  All rights reserved.
data_150541-ICSD
_database_code_ICSD 150541
_audit_creation_date 2006-04-01
_chemical_name_systematic 'Thorium platinum (1/1)'
_chemical_formula_structural 'Th Pt'
_chemical_formula_sum 'Pt1 Th1'
_chemical_name_structure_type TlI
_exptl_crystal_density_diffrn 14.73
_publ_section_title 'The crystal structure of Th Pt and some related compounds'
loop_
_citation_id
_citation_journal_full
_citation_year
_citation_journal_volume
_citation_page_first
_citation_page_last
_citation_journal_id_ASTM
primary 'Acta Crystallographica' 1962 15 1308 1309 ACCRA9
loop_
_publ_author_name
'Thomson, J.R.'
_cell_length_a 3.900(3)
_cell_length_b 11.09(1)
_cell_length_c 4.454(3)
_cell_angle_alpha 90.
_cell_angle_beta 90.
_cell_angle_gamma 90.
_cell_volume 192.64
_cell_formula_units_Z 4
_symmetry_space_group_name_H-M 'C m c m'
_symmetry_Int_Tables_number 63
loop_
_symmetry_equiv_pos_site_id
_symmetry_equiv_pos_as_xyz
1 '-x, y, -z+1/2'
2 '-x, -y, z+1/2'
3 '-x, y, z'
4 '-x, -y, -z'
5 'x, -y, z+1/2'
6 'x, y, -z+1/2'
7 'x, -y, -z'
8 'x, y, z'
9 '-x+1/2, y+1/2, -z+1/2'
10 '-x+1/2, -y+1/2, z+1/2'
11 '-x+1/2, y+1/2, z'
12 '-x+1/2, -y+1/2, -z'
13 'x+1/2, -y+1/2, z+1/2'
14 'x+1/2, y+1/2, -z+1/2'
15 'x+1/2, -y+1/2, -z'
16 'x+1/2, y+1/2, z'
loop_
_atom_type_symbol
_atom_type_oxidation_number
Th0+ 0
Pt0+ 0
loop_
_atom_site_label
_atom_site_type_symbol
_atom_site_symmetry_multiplicity
_atom_site_Wyckoff_symbol
_atom_site_fract_x
_atom_site_fract_y
_atom_site_fract_z
_atom_site_B_iso_or_equiv
_atom_site_occupancy
_atom_site_attached_hydrogens
Th1 Th0+ 4 c 0 0.140(2) 0.25 . 1. 0
Pt1 Pt0+ 4 c 0 0.410(4) 0.25 . 1. 0
#End of TTdata_150541-ICSD