
#(C) 2019 by FIZ Karlsruhe - Leibniz Institute for Information Infrastructure.  All rights reserved.
data_150819-ICSD
_database_code_ICSD 150819
_audit_creation_date 2006-04-01
_chemical_name_systematic 'Thorium iridium (1/1)'
_chemical_formula_structural 'Th Ir'
_chemical_formula_sum 'Ir1 Th1'
_chemical_name_structure_type TlI
_exptl_crystal_density_diffrn 15.28
_publ_section_title 'Crystal structure of ThRh2, ThRu and Th Ir'
loop_
_citation_id
_citation_journal_full
_citation_year
_citation_journal_volume
_citation_page_first
_citation_page_last
_citation_journal_id_ASTM
primary 'Nature (London, United Kingdom)' 1962 194 465 465 NATUAS
loop_
_publ_author_name
'Thomson, J.R.'
_cell_length_a 3.894(3)
_cell_length_b 11.13(1)
_cell_length_c 4.266(3)
_cell_angle_alpha 90.
_cell_angle_beta 90.
_cell_angle_gamma 90.
_cell_volume 184.89
_cell_formula_units_Z 4
_symmetry_space_group_name_H-M 'C m c m'
_symmetry_Int_Tables_number 63
loop_
_symmetry_equiv_pos_site_id
_symmetry_equiv_pos_as_xyz
1 '-x, y, -z+1/2'
2 '-x, -y, z+1/2'
3 '-x, y, z'
4 '-x, -y, -z'
5 'x, -y, z+1/2'
6 'x, y, -z+1/2'
7 'x, -y, -z'
8 'x, y, z'
9 '-x+1/2, y+1/2, -z+1/2'
10 '-x+1/2, -y+1/2, z+1/2'
11 '-x+1/2, y+1/2, z'
12 '-x+1/2, -y+1/2, -z'
13 'x+1/2, -y+1/2, z+1/2'
14 'x+1/2, y+1/2, -z+1/2'
15 'x+1/2, -y+1/2, -z'
16 'x+1/2, y+1/2, z'
loop_
_atom_type_symbol
_atom_type_oxidation_number
Th0+ 0
Ir0+ 0
loop_
_atom_site_label
_atom_site_type_symbol
_atom_site_symmetry_multiplicity
_atom_site_Wyckoff_symbol
_atom_site_fract_x
_atom_site_fract_y
_atom_site_fract_z
_atom_site_B_iso_or_equiv
_atom_site_occupancy
_atom_site_attached_hydrogens
Th1 Th0+ 4 c 0 0.14 0.25 . 1. 0
Ir1 Ir0+ 4 c 0 0.41 0.25 . 1. 0
#End of TTdata_150819-ICSD