
#(C) 2019 by FIZ Karlsruhe - Leibniz Institute for Information Infrastructure.  All rights reserved.
data_151402-ICSD
_database_code_ICSD 151402
_audit_creation_date 2006-10-01
_audit_update_record 2007-08-01
_chemical_name_systematic 'Magnesium zinc (1/1)'
_chemical_formula_structural 'Mg Zn'
_chemical_formula_sum 'Mg1 Zn1'
_exptl_crystal_density_diffrn 4.23
_publ_section_title
'Roentgenographische Untersuchungen der Verbindungen Mg Zn und Mg Zn5'
loop_
_citation_id
_citation_journal_full
_citation_year
_citation_journal_volume
_citation_page_first
_citation_page_last
_citation_journal_id_ASTM
primary 'Zeitschrift fuer Kristallographie' 1933 86 423 438 ZEKRDZ
loop_
_publ_author_name
'Tarschisch, L.'
_cell_length_a 10.66
_cell_length_b 10.66
_cell_length_c 17.16
_cell_angle_alpha 90.
_cell_angle_beta 90.
_cell_angle_gamma 120.
_cell_volume 1688.74
_cell_formula_units_Z 48
_symmetry_space_group_name_H-M 'P 1'
_symmetry_Int_Tables_number 1
loop_
_symmetry_equiv_pos_site_id
_symmetry_equiv_pos_as_xyz
1 'x, y, z'
loop_
_atom_type_symbol
_atom_type_oxidation_number
Mg0+ 0
Zn0+ 0
loop_
_atom_site_label
_atom_site_type_symbol
_atom_site_symmetry_multiplicity
_atom_site_Wyckoff_symbol
_atom_site_fract_x
_atom_site_fract_y
_atom_site_fract_z
_atom_site_B_iso_or_equiv
_atom_site_occupancy
_atom_site_attached_hydrogens
Mg1 Mg0+ 1 a 0.1667 0.3333 0.03125 . 1. 0
Mg2 Mg0+ 1 a 0.6667 0.3333 0.03125 . 1. 0
Mg3 Mg0+ 1 a 0.1667 0.8333 0.03125 . 1. 0
Mg4 Mg0+ 1 a 0.6667 0.8333 0.03125 . 1. 0
Mg5 Mg0+ 1 a 0.1667 0.3333 0.21875 . 1. 0
Mg6 Mg0+ 1 a 0.6667 0.3333 0.21875 . 1. 0
Mg7 Mg0+ 1 a 0.1667 0.8333 0.21875 . 1. 0
Mg8 Mg0+ 1 a 0.6667 0.8333 0.21875 . 1. 0
Mg9 Mg0+ 1 a 0.3333 0.1667 0.28125 . 1. 0
Mg10 Mg0+ 1 a 0.8333 0.1667 0.28125 . 1. 0
Mg11 Mg0+ 1 a 0.3333 0.6667 0.28125 . 1. 0
Mg12 Mg0+ 1 a 0.8333 0.6667 0.28125 . 1. 0
Mg13 Mg0+ 1 a 0.3333 0.1667 0.46875 . 1. 0
Mg14 Mg0+ 1 a 0.8333 0.1667 0.46875 . 1. 0
Mg15 Mg0+ 1 a 0.3333 0.6667 0.46875 . 1. 0
Mg16 Mg0+ 1 a 0.8333 0.6667 0.46875 . 1. 0
Mg17 Mg0+ 1 a 0.1667 0.3333 0.53125 . 1. 0
Mg18 Mg0+ 1 a 0.6667 0.3333 0.53125 . 1. 0
Mg19 Mg0+ 1 a 0.1667 0.8333 0.53125 . 1. 0
Mg20 Mg0+ 1 a 0.6667 0.8333 0.53125 . 1. 0
Mg21 Mg0+ 1 a 0.3333 0.1667 0.78125 . 1. 0
Mg22 Mg0+ 1 a 0.8333 0.1667 0.78125 . 1. 0
Mg23 Mg0+ 1 a 0.3333 0.6667 0.78125 . 1. 0
Mg24 Mg0+ 1 a 0.8333 0.6667 0.78125 . 1. 0
Mg25 Mg0+ 1 a 0.3333 0.1667 0.96875 . 1. 0
Mg26 Mg0+ 1 a 0.8333 0.1667 0.96875 . 1. 0
Mg27 Mg0+ 1 a 0.3333 0.6667 0.96875 . 1. 0
Mg28 Mg0+ 1 a 0.8333 0.6667 0.96875 . 1. 0
Mg29 Mg0+ 1 a 0.1667 0.3333 0.71875 . 1. 0
Mg30 Mg0+ 1 a 0.6667 0.3333 0.71875 . 1. 0
Mg31 Mg0+ 1 a 0.1667 0.8333 0.71875 . 1. 0
Mg32 Mg0+ 1 a 0.6667 0.8333 0.71875 . 1. 0
Mg33 Mg0+ 1 a 0 0 0.03125 . 1. 0
Mg34 Mg0+ 1 a 0 0 0.21875 . 1. 0
Mg35 Mg0+ 1 a 0 0 0.46875 . 1. 0
Mg36 Mg0+ 1 a 0 0 0.78125 . 1. 0
Mg37 Mg0+ 1 a 0.5 0 0.96875 . 1. 0
Mg38 Mg0+ 1 a 0.5 0 0.28125 . 1. 0
Mg39 Mg0+ 1 a 0.5 0 0.53125 . 1. 0
Mg40 Mg0+ 1 a 0.5 0 0.71875 . 1. 0
Mg41 Mg0+ 1 a 0 0.5 0.96875 . 1. 0
Mg42 Mg0+ 1 a 0 0.5 0.28125 . 1. 0
Mg43 Mg0+ 1 a 0 0.5 0.53125 . 1. 0
Mg44 Mg0+ 1 a 0 0.5 0.71875 . 1. 0
Mg45 Mg0+ 1 a 0.5 0.5 0.03125 . 1. 0
Mg46 Mg0+ 1 a 0.5 0.5 0.21875 . 1. 0
Mg47 Mg0+ 1 a 0.5 0.5 0.46875 . 1. 0
Mg48 Mg0+ 1 a 0.5 0.5 0.78125 . 1. 0
Zn1 Zn0+ 1 a 0.4167 0.3333 0.125 . 1. 0
Zn2 Zn0+ 1 a 0.9167 0.3333 0.125 . 1. 0
Zn3 Zn0+ 1 a 0.4167 0.8333 0.125 . 1. 0
Zn4 Zn0+ 1 a 0.9167 0.8333 0.125 . 1. 0
Zn5 Zn0+ 1 a 0.4167 0.3333 0.625 . 1. 0
Zn6 Zn0+ 1 a 0.9167 0.3333 0.625 . 1. 0
Zn7 Zn0+ 1 a 0.4167 0.8333 0.625 . 1. 0
Zn8 Zn0+ 1 a 0.9167 0.8333 0.625 . 1. 0
Zn9 Zn0+ 1 a 0.1667 0.0833 0.125 . 1. 0
Zn10 Zn0+ 1 a 0.6667 0.0833 0.125 . 1. 0
Zn11 Zn0+ 1 a 0.1667 0.5833 0.125 . 1. 0
Zn12 Zn0+ 1 a 0.6667 0.5833 0.125 . 1. 0
Zn13 Zn0+ 1 a 0.1667 0.0833 0.625 . 1. 0
Zn14 Zn0+ 1 a 0.6667 0.0833 0.625 . 1. 0
Zn15 Zn0+ 1 a 0.1667 0.5833 0.625 . 1. 0
Zn16 Zn0+ 1 a 0.6667 0.5833 0.625 . 1. 0
Zn17 Zn0+ 1 a 0.4167 0.0833 0.125 . 1. 0
Zn18 Zn0+ 1 a 0.9167 0.0833 0.125 . 1. 0
Zn19 Zn0+ 1 a 0.4167 0.5833 0.125 . 1. 0
Zn20 Zn0+ 1 a 0.9167 0.5833 0.125 . 1. 0
Zn21 Zn0+ 1 a 0.4167 0.0833 0.625 . 1. 0
Zn22 Zn0+ 1 a 0.9167 0.0833 0.625 . 1. 0
Zn23 Zn0+ 1 a 0.4167 0.5833 0.625 . 1. 0
Zn24 Zn0+ 1 a 0.9167 0.5833 0.625 . 1. 0
Zn25 Zn0+ 1 a 0.0833 0.1667 0.375 . 1. 0
Zn26 Zn0+ 1 a 0.5833 0.1667 0.375 . 1. 0
Zn27 Zn0+ 1 a 0.0833 0.6667 0.375 . 1. 0
Zn28 Zn0+ 1 a 0.5833 0.6667 0.375 . 1. 0
Zn29 Zn0+ 1 a 0.0833 0.1667 0.875 . 1. 0
Zn30 Zn0+ 1 a 0.5833 0.1667 0.875 . 1. 0
Zn31 Zn0+ 1 a 0.0833 0.6667 0.875 . 1. 0
Zn32 Zn0+ 1 a 0.5833 0.6667 0.875 . 1. 0
Zn33 Zn0+ 1 a 0.3333 0.4167 0.375 . 1. 0
Zn34 Zn0+ 1 a 0.8333 0.4167 0.375 . 1. 0
Zn35 Zn0+ 1 a 0.3333 0.9167 0.375 . 1. 0
Zn36 Zn0+ 1 a 0.8333 0.9167 0.375 . 1. 0
Zn37 Zn0+ 1 a 0.3333 0.4167 0.875 . 1. 0
Zn38 Zn0+ 1 a 0.8333 0.4167 0.875 . 1. 0
Zn39 Zn0+ 1 a 0.3333 0.9167 0.875 . 1. 0
Zn40 Zn0+ 1 a 0.8333 0.9167 0.875 . 1. 0
Zn41 Zn0+ 1 a 0.0833 0.4167 0.375 . 1. 0
Zn42 Zn0+ 1 a 0.5833 0.4167 0.375 . 1. 0
Zn43 Zn0+ 1 a 0.0833 0.9167 0.375 . 1. 0
Zn44 Zn0+ 1 a 0.5833 0.9167 0.375 . 1. 0
Zn45 Zn0+ 1 a 0.0833 0.4167 0.875 . 1. 0
Zn46 Zn0+ 1 a 0.5833 0.4167 0.875 . 1. 0
Zn47 Zn0+ 1 a 0.0833 0.9167 0.875 . 1. 0
Zn48 Zn0+ 1 a 0.5833 0.9167 0.875 . 1. 0
#End of TTdata_151402-ICSD