
#(C) 2019 by FIZ Karlsruhe - Leibniz Institute for Information Infrastructure.  All rights reserved.
data_153662-ICSD
_database_code_ICSD 153662
_audit_creation_date 2007-04-01
_chemical_name_systematic 'Lutetium iridium silicide (2/3/5)'
_chemical_formula_structural 'Lu2 Ir3 Si5'
_chemical_formula_sum 'Ir3 Lu2 Si5'
_chemical_name_structure_type U2Co3Si5
_exptl_crystal_density_diffrn 11.1
_publ_section_title 'Phase transitions in Lu2 Ir3 Si5'
loop_
_citation_id
_citation_journal_full
_citation_year
_citation_journal_volume
_citation_page_first
_citation_page_last
_citation_journal_id_ASTM
primary 'Physical Review B: Condensed Matter and Materials Physics' 2005 71
045109-1 045109-6 PRBMDO
loop_
_publ_author_name
'Singh, Y.'
'Pal, D.'
'Ramakrishnan, S.'
'Awasthi, A.M.'
'Malik, S.K.'
_cell_length_a 9.91457(5)
_cell_length_b 11.28665(5)
_cell_length_c 5.72191(5)
_cell_angle_alpha 90.
_cell_angle_beta 90.
_cell_angle_gamma 90.
_cell_volume 640.29
_cell_formula_units_Z 4
_symmetry_space_group_name_H-M 'I b a m'
_symmetry_Int_Tables_number 72
_refine_ls_R_factor_all 0.056
loop_
_symmetry_equiv_pos_site_id
_symmetry_equiv_pos_as_xyz
1 '-x, y, z+1/2'
2 'x, -y, z+1/2'
3 'x, y, -z'
4 '-x, -y, -z'
5 'x, -y, -z+1/2'
6 '-x, y, -z+1/2'
7 '-x, -y, z'
8 'x, y, z'
9 '-x+1/2, y+1/2, z'
10 'x+1/2, -y+1/2, z'
11 'x+1/2, y+1/2, -z+1/2'
12 '-x+1/2, -y+1/2, -z+1/2'
13 'x+1/2, -y+1/2, -z'
14 '-x+1/2, y+1/2, -z'
15 '-x+1/2, -y+1/2, z+1/2'
16 'x+1/2, y+1/2, z+1/2'
loop_
_atom_type_symbol
_atom_type_oxidation_number
Lu0+ 0
Ir0+ 0
Si0+ 0
loop_
_atom_site_label
_atom_site_type_symbol
_atom_site_symmetry_multiplicity
_atom_site_Wyckoff_symbol
_atom_site_fract_x
_atom_site_fract_y
_atom_site_fract_z
_atom_site_B_iso_or_equiv
_atom_site_occupancy
_atom_site_attached_hydrogens
Lu1 Lu0+ 8 j 0.26732 0.37011 0 . 1. 0
Ir1 Ir0+ 8 j 0.10613 0.13415 0 . 1. 0
Ir2 Ir0+ 4 b 0.5 0 0.25 . 1. 0
Si1 Si0+ 4 a 0 0 0.25 . 1. 0
Si2 Si0+ 8 g 0 0.27396 0.25 . 1. 0
Si3 Si0+ 8 j 0.3573 0.09697 0 . 1. 0
#End of TTdata_153662-ICSD