
#(C) 2019 by FIZ Karlsruhe - Leibniz Institute for Information Infrastructure.  All rights reserved.
data_157839-ICSD
_database_code_ICSD 157839
_audit_creation_date 2008-02-01
_audit_update_record 2013-02-01
_chemical_name_systematic 'Potassium dicalcium triniobate'
_chemical_formula_structural 'K Ca2 (Nb3 O10)'
_chemical_formula_sum 'Ca2 K1 Nb3 O10'
_chemical_name_structure_type BaNd2Ti3O10(P21/m)
_exptl_crystal_density_diffrn 4.22
_publ_section_title
'Powder neutron diffraction study of layered perovskite, K Ca2 Nb3 O10'
loop_
_citation_id
_citation_journal_full
_citation_year
_citation_journal_volume
_citation_page_first
_citation_page_last
_citation_journal_id_ASTM
primary 'Journal of the Ceramic Society of Japan' 2006 114 795 797 JCSJEW
loop_
_publ_author_name
'Tokumitsu, T.'
'Toda, K.'
'Aoyagi, T.'
'Sakuraba, D.'
'Uematsu, K.'
'Sato, M.'
_cell_length_a 7.7418(6)
_cell_length_b 7.7073(6)
_cell_length_c 14.859(1)
_cell_angle_alpha 90.
_cell_angle_beta 97.51(1)
_cell_angle_gamma 90.
_cell_volume 879.01
_cell_formula_units_Z 4
_symmetry_space_group_name_H-M 'P 1 21/m 1'
_symmetry_Int_Tables_number 11
_refine_ls_R_factor_all 0.0123
loop_
_symmetry_equiv_pos_site_id
_symmetry_equiv_pos_as_xyz
1 'x, -y+1/2, z'
2 '-x, -y, -z'
3 '-x, y+1/2, -z'
4 'x, y, z'
loop_
_atom_type_symbol
_atom_type_oxidation_number
Ca2+ 2
K1+ 1
Nb5+ 5
O2- -2
loop_
_atom_site_label
_atom_site_type_symbol
_atom_site_symmetry_multiplicity
_atom_site_Wyckoff_symbol
_atom_site_fract_x
_atom_site_fract_y
_atom_site_fract_z
_atom_site_B_iso_or_equiv
_atom_site_occupancy
_atom_site_attached_hydrogens
Ca1 Ca2+ 2 e 0.220(6) 0.25 0.847(2) 1.3(6) 1. 0
Ca2 Ca2+ 2 e 0.283(6) 0.25 0.154(3) 1.3(6) 1. 0
Ca3 Ca2+ 2 e 0.678(4) 0.25 0.872(2) 0.10(56) 1. 0
Ca4 Ca2+ 2 e 0.799(5) 0.25 0.149(2) 0.10(56) 1. 0
K1 K1+ 2 e 0.384(8) 0.75 0.465(3) 1.6(6) 1. 0
K2 K1+ 2 e 0.868(7) 0.75 0.492(2) 1.6(6) 1. 0
Nb1 Nb5+ 2 a 0 0 0 0.15(9) 1. 0
Nb2 Nb5+ 2 b 0.5 0 0 0.15(9) 1. 0
Nb3 Nb5+ 4 f 0.429(2) -0.004(1) 0.7152(9) 0.15(9) 1. 0
Nb4 Nb5+ 4 f 0.925(2) 0.013(1) 0.7110(9) 0.15(9) 1. 0
O1 O2- 4 f 0.505(2) -0.033(2) 0.871(1) 0.6(4) 1. 0
O2 O2- 4 f 0.406(4) 0.017(3) 0.595(1) 2.4(4) 1. 0
O3 O2- 4 f 0.684(3) -0.012(2) 0.730(1) 0.5(3) 1. 0
O4 O2- 2 e 0.459(4) 0.25 0.751(2) 0.7(4) 1. 0
O5 O2- 2 e 0.426(6) 0.75 0.725(2) 2.0(3) 1. 0
O6 O2- 2 e 0.424(3) 0.25 0.986(1) 0.7(4) 1. 0
O7 O2- 4 f 0.245(4) -0.053(1) -0.020(1) 2.0(3) 1. 0
O8 O2- 4 f -0.008(3) -0.052(2) 0.870(1) 0.6(3) 1. 0
O9 O2- 4 f 0.919(3) 0.047(2) 0.594(1) 0.6(3) 1. 0
O10 O2- 4 f 0.182(3) 0.026(2) 0.752(1) 0.1(5) 1. 0
O11 O2- 2 e -0.065(4) 0.25 0.767(2) 1.0(6) 1. 0
O12 O2- 2 e 0.931(5) 0.75 0.718(2) 2.0(3) 1. 0
O13 O2- 2 e 0.027(4) 0.25 0.972(1) 0.4(5) 1. 0
#End of TTdata_157839-ICSD