
#(C) 2019 by FIZ Karlsruhe - Leibniz Institute for Information Infrastructure.  All rights reserved.
data_158364-ICSD
_database_code_ICSD 158364
_audit_creation_date 2008-02-01
_chemical_name_systematic 'Palladium tin (2/1) - nanocrystalline'
_chemical_formula_structural 'Pd2 Sn'
_chemical_formula_sum 'Pd2 Sn1'
_chemical_name_structure_type Co2Si
_exptl_crystal_density_diffrn 11.21
_publ_section_title 'Preparation and characterization of Pd2 Sn nanoparticles'
loop_
_citation_id
_citation_journal_full
_citation_year
_citation_journal_volume
_citation_page_first
_citation_page_last
_citation_journal_id_ASTM
primary 'Materials Research Bulletin' 2007 42 1969 1975 MRBUAC
loop_
_publ_author_name
'Page, K.'
'Schade, C.S.'
'Zhang Jinping'
'Chupas, P.J.'
'Chapman, K.W.'
'Proffen, T.'
'Cheetham, A.K.'
'Seshadri, R.'
_cell_length_a 5.647(1)
_cell_length_b 4.294(1)
_cell_length_c 8.103(2)
_cell_angle_alpha 90.
_cell_angle_beta 90.
_cell_angle_gamma 90.
_cell_volume 196.48
_cell_formula_units_Z 4
_symmetry_space_group_name_H-M 'P n m a'
_symmetry_Int_Tables_number 62
loop_
_symmetry_equiv_pos_site_id
_symmetry_equiv_pos_as_xyz
1 'x+1/2, y, -z+1/2'
2 'x, -y+1/2, z'
3 '-x+1/2, y+1/2, z+1/2'
4 '-x, -y, -z'
5 '-x+1/2, -y, z+1/2'
6 '-x, y+1/2, -z'
7 'x+1/2, -y+1/2, -z+1/2'
8 'x, y, z'
loop_
_atom_type_symbol
_atom_type_oxidation_number
Pd0+ 0
Sn0+ 0
loop_
_atom_site_label
_atom_site_type_symbol
_atom_site_symmetry_multiplicity
_atom_site_Wyckoff_symbol
_atom_site_fract_x
_atom_site_fract_y
_atom_site_fract_z
_atom_site_B_iso_or_equiv
_atom_site_occupancy
_atom_site_attached_hydrogens
Pd1 Pd0+ 4 c 0.054(2) 0.25 0.201(1) 0.66(9) 1. 0
Pd2 Pd0+ 4 c 0.183(2) 0.25 0.566(1) 0.66(9) 1. 0
Sn1 Sn0+ 4 c 0.703(2) 0.25 0.614(1) 0.36(9) 1. 0
#End of TTdata_158364-ICSD