
#(C) 2019 by FIZ Karlsruhe - Leibniz Institute for Information Infrastructure.  All rights reserved.
data_159307-ICSD
_database_code_ICSD 159307
_audit_creation_date 2008-08-01
_chemical_name_systematic 'Silane - V'
_chemical_formula_structural 'Si H4'
_chemical_formula_sum 'H4 Si1'
_chemical_name_structure_type BaRh2Si2
_exptl_crystal_density_diffrn 1.8
_cell_measurement_temperature 300.
_cell_measurement_pressure 24800000.
_publ_section_title 'Crystal structure pf Si H4 at high pressure'
loop_
_citation_id
_citation_journal_full
_citation_year
_citation_journal_volume
_citation_page_first
_citation_page_last
_citation_journal_id_ASTM
primary 'Physical Review B: Condensed Matter and Materials Physics' 2007 76
064123-1 064123-4 PRBMDO
loop_
_publ_author_name
'Degtyareva, O.'
'Martinez Canales, M.'
'Bergara, A.'
'Chen Xiaojia'
'Song Yang'
'Struzhkin, V.V.'
'Mao Hokwang'
'Hemley, R.J.'
_cell_length_a 5.699(1)
_cell_length_b 3.814(1)
_cell_length_c 5.643(1)
_cell_angle_alpha 90.
_cell_angle_beta 104.38(1)
_cell_angle_gamma 90.
_cell_volume 118.81
_cell_formula_units_Z 4
_symmetry_space_group_name_H-M 'P 1 21/c 1'
_symmetry_Int_Tables_number 14
_refine_ls_R_factor_all 0.099
loop_
_symmetry_equiv_pos_site_id
_symmetry_equiv_pos_as_xyz
1 'x, -y+1/2, z+1/2'
2 '-x, -y, -z'
3 '-x, y+1/2, -z+1/2'
4 'x, y, z'
loop_
_atom_type_symbol
_atom_type_oxidation_number
Si4+ 4
H1- -1
loop_
_atom_site_label
_atom_site_type_symbol
_atom_site_symmetry_multiplicity
_atom_site_Wyckoff_symbol
_atom_site_fract_x
_atom_site_fract_y
_atom_site_fract_z
_atom_site_B_iso_or_equiv
_atom_site_occupancy
_atom_site_attached_hydrogens
Si1 Si4+ 4 e 0.249 0.581 0.371 . 1. 0
H1 H1- 4 e 0.036 0.571 0.158 . 1. 0
H2 H1- 4 e 0.325 0.946 0.434 . 1. 0
H3 H1- 4 e 0.453 0.396 0.3 . 1. 0
H4 H1- 4 e 0.186 0.395 0.574 . 1. 0
#End of TTdata_159307-ICSD