
#(C) 2019 by FIZ Karlsruhe - Leibniz Institute for Information Infrastructure.  All rights reserved.
data_163144-ICSD
_database_code_ICSD 163144
_audit_creation_date 2009-08-01
_chemical_name_systematic 'Sodium iron arsenide'
_chemical_formula_structural 'Na Fe As'
_chemical_formula_sum 'As1 Fe1 Na1'
_chemical_name_structure_type PbClF
_exptl_crystal_density_diffrn 4.69
_cell_measurement_temperature 2.5
_publ_section_title

;
Structure, antiferromagnetism and superconductivity of the layered iron
arsenide Na Fe As
;
loop_
_citation_id
_citation_journal_full
_citation_year
_citation_journal_volume
_citation_page_first
_citation_page_last
_citation_journal_id_ASTM
primary 'Chemical Communications (Cambridge, United Kingdom)' 2009 2009 2189
2191 CHCOFS
loop_
_publ_author_name
'Parker, D.R.'
'Pitcher, M.J.'
'Baker, P.J.'
'Franke, I.'
'Lancaster, T.'
'Blundell, S.J.'
'Clarke, S.J.'
_cell_length_a 3.94729(2)
_cell_length_b 3.94729(2)
_cell_length_c 6.99112(6)
_cell_angle_alpha 90.
_cell_angle_beta 90.
_cell_angle_gamma 90.
_cell_volume 108.93
_cell_formula_units_Z 2
_symmetry_space_group_name_H-M 'P 4/n m m Z'
_symmetry_Int_Tables_number 129
_refine_ls_R_factor_all 0.0129
loop_
_symmetry_equiv_pos_site_id
_symmetry_equiv_pos_as_xyz
1 'y+1/2, x+1/2, -z'
2 '-y, x+1/2, -z'
3 'y+1/2, -x, -z'
4 '-y, -x, -z'
5 'x+1/2, y+1/2, -z'
6 '-x, y+1/2, -z'
7 'x+1/2, -y, -z'
8 '-x, -y, -z'
9 '-y+1/2, -x+1/2, z'
10 'y, -x+1/2, z'
11 '-y+1/2, x, z'
12 'y, x, z'
13 '-x+1/2, -y+1/2, z'
14 'x, -y+1/2, z'
15 '-x+1/2, y, z'
16 'x, y, z'
loop_
_atom_type_symbol
_atom_type_oxidation_number
Fe2+ 2
Na1+ 1
As3- -3
loop_
_atom_site_label
_atom_site_type_symbol
_atom_site_symmetry_multiplicity
_atom_site_Wyckoff_symbol
_atom_site_fract_x
_atom_site_fract_y
_atom_site_fract_z
_atom_site_B_iso_or_equiv
_atom_site_occupancy
_atom_site_attached_hydrogens
Fe1 Fe2+ 2 a 0.75 0.25 0 0.0019(1) 1. 0
Na1 Na1+ 2 c 0.25 0.25 0.64673(8) 0.0054(3) 1. 0
As1 As3- 2 c 0.25 0.25 0.20234(4) 0.0022(2) 1. 0
loop_
_atom_site_aniso_label
_atom_site_aniso_type_symbol
_atom_site_aniso_U_11
_atom_site_aniso_U_22
_atom_site_aniso_U_33
_atom_site_aniso_U_12
_atom_site_aniso_U_13
_atom_site_aniso_U_23
Fe1 Fe2+ 0.00134(4) 0.00134(4) 0.00317(8) 0. 0. 0.
Na1 Na1+ 0.00429(9) 0.00429(9) 0.00753(9) 0. 0. 0.
As1 As3- 0.00184(7) 0.00184(7) 0.00298(9) 0. 0. 0.
#End of TTdata_163144-ICSD