
#(C) 2019 by FIZ Karlsruhe - Leibniz Institute for Information Infrastructure.  All rights reserved.
data_164196-ICSD
_database_code_ICSD 164196
_audit_creation_date 2010-02-01
_chemical_name_systematic 'Barium dinickel arsenide - LT'
_chemical_formula_structural 'Ba Ni2 As2'
_chemical_formula_sum 'As2 Ba1 Ni2'
_exptl_crystal_density_diffrn 6.71
_cell_measurement_temperature 100.
_publ_section_title

;
Structure and anisotropic properties of Ba Fe2-x Nix As2 (x= 0, 1 and 2)
single crystals
;
loop_
_citation_id
_citation_journal_full
_citation_year
_citation_journal_volume
_citation_page_first
_citation_page_last
_citation_journal_id_ASTM
primary 'Physical Review B: Condensed Matter and Materials Physics' 2009 79
094508-1 094508-8 PRBMDO
loop_
_publ_author_name
'Sefat, A.S.'
'McGuire, M.A.'
'Jin Rongying'
'Sales, B.C.'
'Mandrus, D.'
'Ronning, F.'
'Bauer, E.D.'
'Mozharivskyj, Yu.'
_cell_length_a 6.5170(14)
_cell_length_b 6.4587(12)
_cell_length_c 6.4440(12)
_cell_angle_alpha 37.719(11)
_cell_angle_beta 54.009(14)
_cell_angle_gamma 37.382(9)
_cell_volume 100.13
_cell_formula_units_Z 1
_symmetry_space_group_name_H-M 'P -1'
_symmetry_Int_Tables_number 2
_refine_ls_R_factor_all 0.0682
loop_
_symmetry_equiv_pos_site_id
_symmetry_equiv_pos_as_xyz
1 '-x, -y, -z'
2 'x, y, z'
loop_
_atom_type_symbol
_atom_type_oxidation_number
Ba2+ 2
As3- -3
Ni2+ 2
loop_
_atom_site_label
_atom_site_type_symbol
_atom_site_symmetry_multiplicity
_atom_site_Wyckoff_symbol
_atom_site_fract_x
_atom_site_fract_y
_atom_site_fract_z
_atom_site_B_iso_or_equiv
_atom_site_occupancy
_atom_site_attached_hydrogens
Ba1 Ba2+ 1 a 0 0 0 0.0131(2) 1. 0
As1 As3- 2 i 0.3669(3) 0.9785(5) 0.3444(5) 0.0277(3) 1. 0
Ni1 Ni2+ 2 i 0.2219(4) 0.5255(7) 0.7513(7) 0.0366(4) 1. 0
#End of TTdata_164196-ICSD