
#(C) 2019 by FIZ Karlsruhe - Leibniz Institute for Information Infrastructure.  All rights reserved.
data_165617-ICSD
_database_code_ICSD 165617
_audit_creation_date 2010-02-01
_chemical_name_systematic 'Strontium tin antimonide (1/3/4)'
_chemical_formula_structural 'Sr Sn3 Sb4'
_chemical_formula_sum 'Sb4 Sn3 Sr1'
_chemical_name_structure_type EuSb2Sn3
_exptl_crystal_density_diffrn 6.14
_cell_measurement_temperature 295.
_publ_section_title 'Synthesis and structure of the Zintl phase Sr Sn3 Sb4'
loop_
_citation_id
_citation_journal_full
_citation_year
_citation_journal_volume
_citation_page_first
_citation_page_last
_citation_journal_id_ASTM
primary 'Inorganic Chemistry' 1997 36 3750 3753 INOCAJ
loop_
_publ_author_name
'Chow, D.T.'
'McDonald, R.'
'Mar, A.'
_cell_length_a 10.060(2)
_cell_length_b 4.3614(10)
_cell_length_c 22.934(4)
_cell_angle_alpha 90.
_cell_angle_beta 90.
_cell_angle_gamma 90.
_cell_volume 1006.24
_cell_formula_units_Z 4
_symmetry_space_group_name_H-M 'P n m a'
_symmetry_Int_Tables_number 62
_refine_ls_R_factor_all 0.056
loop_
_symmetry_equiv_pos_site_id
_symmetry_equiv_pos_as_xyz
1 'x+1/2, y, -z+1/2'
2 'x, -y+1/2, z'
3 '-x+1/2, y+1/2, z+1/2'
4 '-x, -y, -z'
5 '-x+1/2, -y, z+1/2'
6 '-x, y+1/2, -z'
7 'x+1/2, -y+1/2, -z+1/2'
8 'x, y, z'
loop_
_atom_type_symbol
_atom_type_oxidation_number
Sr0+ 0
Sn0+ 0
Sb0+ 0
loop_
_atom_site_label
_atom_site_type_symbol
_atom_site_symmetry_multiplicity
_atom_site_Wyckoff_symbol
_atom_site_fract_x
_atom_site_fract_y
_atom_site_fract_z
_atom_site_B_iso_or_equiv
_atom_site_occupancy
_atom_site_attached_hydrogens
Sr1 Sr0+ 4 c 0.0608(2) 0.25 0.13005(8) 0.0126(4) 1 0
Sn1 Sn0+ 4 c 0.27652(13) 0.25 0.25023(6) 0.0157(3) 1 0
Sn2 Sn0+ 4 c 0.34950(15) 0.25 0.01011(7) 0.0216(4) 1 0
Sn3 Sn0+ 4 c 0.45758(12) 0.25 0.85027(6) 0.0136(3) 1 0
Sb1 Sb0+ 4 c 0.03441(13) 0.25 0.76722(6) 0.0137(3) 1 0
Sb2 Sb0+ 4 c 0.20173(12) 0.25 0.59224(6) 0.0151(3) 1 0
Sb3 Sb0+ 4 c 0.21092(12) 0.25 0.37534(6) 0.0143(3) 1 0
Sb4 Sb0+ 4 c 0.57006(13) 0.25 0.52914(6) 0.0163(3) 1 0
loop_
_atom_site_aniso_label
_atom_site_aniso_type_symbol
_atom_site_aniso_U_11
_atom_site_aniso_U_22
_atom_site_aniso_U_33
_atom_site_aniso_U_12
_atom_site_aniso_U_13
_atom_site_aniso_U_23
Sr1 Sr0+ 0.0133(8) 0.0129(10) 0.0116(8) 0. 0.0010(6) 0.
Sn1 Sn0+ 0.0151(6) 0.0182(8) 0.0139(6) 0. -0.0006(5) 0.
Sn2 Sn0+ 0.0216(7) 0.0232(9) 0.0200(8) 0. -0.0009(6) 0.
Sn3 Sn0+ 0.0114(6) 0.0136(7) 0.0159(6) 0. -0.0010(5) 0.
Sb1 Sb0+ 0.0157(6) 0.0134(7) 0.0121(6) 0. 0.0020(5) 0.
Sb2 Sb0+ 0.0092(5) 0.0177(8) 0.0184(7) 0. 0.0012(5) 0.
Sb3 Sb0+ 0.0106(5) 0.0148(7) 0.0174(6) 0. -0.0020(5) 0.
Sb4 Sb0+ 0.0159(6) 0.0147(8) 0.0183(7) 0. 0.0064(5) 0.
#End of TTdata_165617-ICSD