
#(C) 2019 by FIZ Karlsruhe - Leibniz Institute for Information Infrastructure.  All rights reserved.
data_167533-ICSD
_database_code_ICSD 167533
_audit_creation_date 2011-02-01
_chemical_name_systematic 'Ytterbium aluminium boride (1/1/4) - beta'
_chemical_formula_structural 'Yb Al B4'
_chemical_formula_sum 'Al1 B4 Yb1'
_chemical_name_structure_type ThMoB4
_exptl_crystal_density_diffrn 6.79
_cell_measurement_temperature 298.
_publ_section_title

;
Crystal structure and physical properties of polymorphs of Ln Al B4 (Ln= Yb,
Lu)
;
loop_
_citation_id
_citation_journal_full
_citation_year
_citation_journal_volume
_citation_page_first
_citation_page_last
_citation_journal_id_ASTM
primary 'Chemistry of Materials' 2007 19 1918 1922 CMATEX
loop_
_publ_author_name
'Macaluso, R.T.'
'Nakatsuji, S.'
'Kuga, K.'
'Thomas, E.L.'
'Machida, Y.'
'Maeno, Y.'
'Fisk, Z.'
'Chan, J.-Y.'
_cell_length_a 7.3080(4)
_cell_length_b 9.3150(5)
_cell_length_c 3.4980(2)
_cell_angle_alpha 90.
_cell_angle_beta 90.
_cell_angle_gamma 90.
_cell_volume 238.12
_cell_formula_units_Z 4
_symmetry_space_group_name_H-M 'C m m m'
_symmetry_Int_Tables_number 65
_refine_ls_R_factor_all 0.0568
loop_
_symmetry_equiv_pos_site_id
_symmetry_equiv_pos_as_xyz
1 'x, -y, z'
2 '-x, y, z'
3 'x, y, -z'
4 '-x, -y, -z'
5 '-x, y, -z'
6 'x, -y, -z'
7 '-x, -y, z'
8 'x, y, z'
9 'x+1/2, -y+1/2, z'
10 '-x+1/2, y+1/2, z'
11 'x+1/2, y+1/2, -z'
12 '-x+1/2, -y+1/2, -z'
13 '-x+1/2, y+1/2, -z'
14 'x+1/2, -y+1/2, -z'
15 '-x+1/2, -y+1/2, z'
16 'x+1/2, y+1/2, z'
loop_
_atom_type_symbol
_atom_type_oxidation_number
Yb3+ 3
Al3+ 3
B1- -1.5
loop_
_atom_site_label
_atom_site_type_symbol
_atom_site_symmetry_multiplicity
_atom_site_Wyckoff_symbol
_atom_site_fract_x
_atom_site_fract_y
_atom_site_fract_z
_atom_site_B_iso_or_equiv
_atom_site_occupancy
_atom_site_attached_hydrogens
Yb1 Yb3+ 4 i 0. 0.30059(5) 0. 0.0055(5) 1 0
Al1 Al3+ 4 g 0.1816(8) 0. 0. 0.0063(10) 1 0
B1 B1- 8 q 0.2232(16) 0.1609(19) 0.5 0.006(2) 1 0
B2 B1- 4 h 0.124(3) 0.5 0.5 0.004(3) 1 0
B3 B1- 4 j 0. 0.092(2) 0.5 0.005(3) 1 0
loop_
_atom_site_aniso_label
_atom_site_aniso_type_symbol
_atom_site_aniso_U_11
_atom_site_aniso_U_22
_atom_site_aniso_U_33
_atom_site_aniso_U_12
_atom_site_aniso_U_13
_atom_site_aniso_U_23
Yb1 Yb3+ 0.0065(7) 0.0052(7) 0.0047(7) 0. 0. 0.
Al1 Al3+ 0.006(2) 0.007(2) 0.005(2) 0. 0. 0.
B1 B1- 0.007(6) 0.008(6) 0.004(5) -0.002(5) 0. 0.
#End of TTdata_167533-ICSD