
#(C) 2019 by FIZ Karlsruhe - Leibniz Institute for Information Infrastructure.  All rights reserved.
data_168586-ICSD
_database_code_ICSD 168586
_audit_creation_date 2011-02-01
_chemical_name_systematic
'Diiron(II) diphosphide tetrastrontium discandium hexaoxide'
_chemical_formula_structural '(Fe2 P2) (Sr4 Sc2 O6)'
_chemical_formula_sum 'Fe2 O6 P2 Sc2 Sr4'
_chemical_name_structure_type Sr2CuGaO3S
_exptl_crystal_density_diffrn 4.7
_publ_section_title

;
Superconductivity at 17 K in (Fe2 P2) (Sr4 Sc2 O6): a new superconducting
layered pnictide oxide with a thick perovskite oxide layer
;
loop_
_citation_id
_citation_journal_full
_citation_year
_citation_journal_volume
_citation_page_first
_citation_page_last
_citation_journal_id_ASTM
primary 'Superconductor Science and Technology' 2009 22 075008-1 075008-4 SUSTEF
loop_
_publ_author_name
'Ogino, H.'
'Matsumura, Y.'
'Katsura, Y.'
'Ushiyama, K.'
'Horii, S.'
'Kishio, K.'
'Shimoyama, J.'
_cell_length_a 4.016(1)
_cell_length_b 4.016(1)
_cell_length_c 15.543
_cell_angle_alpha 90.
_cell_angle_beta 90.
_cell_angle_gamma 90.
_cell_volume 250.68
_cell_formula_units_Z 1
_symmetry_space_group_name_H-M 'P 4/n m m Z'
_symmetry_Int_Tables_number 129
loop_
_symmetry_equiv_pos_site_id
_symmetry_equiv_pos_as_xyz
1 'y+1/2, x+1/2, -z'
2 '-y, x+1/2, -z'
3 'y+1/2, -x, -z'
4 '-y, -x, -z'
5 'x+1/2, y+1/2, -z'
6 '-x, y+1/2, -z'
7 'x+1/2, -y, -z'
8 '-x, -y, -z'
9 '-y+1/2, -x+1/2, z'
10 'y, -x+1/2, z'
11 '-y+1/2, x, z'
12 'y, x, z'
13 '-x+1/2, -y+1/2, z'
14 'x, -y+1/2, z'
15 '-x+1/2, y, z'
16 'x, y, z'
loop_
_atom_type_symbol
_atom_type_oxidation_number
Sc3+ 3
Fe2+ 2
Sr2+ 2
O2- -2
P3- -3
loop_
_atom_site_label
_atom_site_type_symbol
_atom_site_symmetry_multiplicity
_atom_site_Wyckoff_symbol
_atom_site_fract_x
_atom_site_fract_y
_atom_site_fract_z
_atom_site_B_iso_or_equiv
_atom_site_occupancy
_atom_site_attached_hydrogens
Sc1 Sc3+ 2 c 0.25 0.25 0.3026 . 1. 0
Fe1 Fe2+ 2 a 0.25 0.75 0 . 1. 0
Sr1 Sr2+ 2 c 0.75 0.75 0.1817 . 1. 0
Sr2 Sr2+ 2 c 0.75 0.75 0.4146 . 1. 0
O1 O2- 4 f 0.25 0.75 0.2836 . 1. 0
O2 O2- 2 c 0.25 0.25 0.4288 . 1. 0
P1 P3- 2 c 0.25 0.25 0.0771 . 1. 0
#End of TTdata_168586-ICSD