
#(C) 2019 by FIZ Karlsruhe - Leibniz Institute for Information Infrastructure.  All rights reserved.
data_168817-ICSD
_database_code_ICSD 168817
_audit_creation_date 2011-02-01
_chemical_name_systematic 'Neptunium palladium aluminium (1/5/2)'
_chemical_formula_structural 'Np Pd5 Al2'
_chemical_formula_sum 'Al2 Np1 Pd5'
_chemical_name_structure_type Al5Ni2Zr
_exptl_crystal_density_diffrn 10.79
_publ_section_title

;
Crystal structure and magnetic properties of the new ternary actinide
compounds in An-Pd-Al system (An= U, Np)
;
loop_
_citation_id
_citation_journal_full
_citation_year
_citation_journal_volume
_citation_page_first
_citation_page_last
_citation_journal_id_ASTM
primary 'Journal of Optoelectronics and Advanced Materials' 2008 10 1601 1606
JOAMF2
loop_
_publ_author_name
'Haga, Y.'
'Aoki, D.'
'Homma, Y.'
'Ikeda, S.'
'Matsuda, T.D.'
'Yamamoto, E.'
'Sakai, H.'
'Tateiwa, N.'
'Dung, N.D.'
'Nakamura, A.'
'Shiokawa, Y.'
'Onuki, Y.'
_cell_length_a 4.148(2)
_cell_length_b 4.148(2)
_cell_length_c 14.716(5)
_cell_angle_alpha 90.
_cell_angle_beta 90.
_cell_angle_gamma 90.
_cell_volume 253.2
_cell_formula_units_Z 2
_symmetry_space_group_name_H-M 'I 4/m m m'
_symmetry_Int_Tables_number 139
loop_
_symmetry_equiv_pos_site_id
_symmetry_equiv_pos_as_xyz
1 'y, x, -z'
2 '-y, -x, -z'
3 '-y, x, -z'
4 'y, -x, -z'
5 '-x, y, -z'
6 'x, -y, -z'
7 'x, y, -z'
8 '-x, -y, -z'
9 '-y, -x, z'
10 'y, x, z'
11 'y, -x, z'
12 '-y, x, z'
13 'x, -y, z'
14 '-x, y, z'
15 '-x, -y, z'
16 'x, y, z'
17 'y+1/2, x+1/2, -z+1/2'
18 '-y+1/2, -x+1/2, -z+1/2'
19 '-y+1/2, x+1/2, -z+1/2'
20 'y+1/2, -x+1/2, -z+1/2'
21 '-x+1/2, y+1/2, -z+1/2'
22 'x+1/2, -y+1/2, -z+1/2'
23 'x+1/2, y+1/2, -z+1/2'
24 '-x+1/2, -y+1/2, -z+1/2'
25 '-y+1/2, -x+1/2, z+1/2'
26 'y+1/2, x+1/2, z+1/2'
27 'y+1/2, -x+1/2, z+1/2'
28 '-y+1/2, x+1/2, z+1/2'
29 'x+1/2, -y+1/2, z+1/2'
30 '-x+1/2, y+1/2, z+1/2'
31 '-x+1/2, -y+1/2, z+1/2'
32 'x+1/2, y+1/2, z+1/2'
loop_
_atom_type_symbol
_atom_type_oxidation_number
Np0+ 0
Pd0+ 0
Al0+ 0
loop_
_atom_site_label
_atom_site_type_symbol
_atom_site_symmetry_multiplicity
_atom_site_Wyckoff_symbol
_atom_site_fract_x
_atom_site_fract_y
_atom_site_fract_z
_atom_site_B_iso_or_equiv
_atom_site_occupancy
_atom_site_attached_hydrogens
Np1 Np0+ 2 a 0 0 0 . 1. 0
Pd1 Pd0+ 2 b 0 0 0.5 . 1. 0
Pd2 Pd0+ 8 g 0 0.5 0.1467(9) . 1. 0
Al1 Al0+ 4 e 0 0 0.255(3) . 1. 0
#End of TTdata_168817-ICSD