
#(C) 2019 by FIZ Karlsruhe - Leibniz Institute for Information Infrastructure.  All rights reserved.
data_171030-ICSD
_database_code_ICSD 171030
_audit_creation_date 2006-04-01
_chemical_name_systematic 'Palladium antimonide selenide'
_chemical_formula_structural 'Pd Sb Se'
_chemical_formula_sum 'Pd1 Sb1 Se1'
_chemical_name_structure_type NiSSb
_chemical_name_mineral Milotaite
_exptl_crystal_density_diffrn 8.09
_publ_section_title

;
Milotaite, Pd Sb Se, a new palladium mineral species from Predborice, Czech
Republic
;
loop_
_citation_id
_citation_journal_full
_citation_year
_citation_journal_volume
_citation_page_first
_citation_page_last
_citation_journal_id_ASTM
primary 'Canadian Mineralogist' 2005 43 689 694 CAMIA6
loop_
_publ_author_name
'Paar, W.H.'
'Topa, D.'
'Makovicky, E.'
'Culetto, F.J.'
_cell_length_a 6.3181
_cell_length_b 6.3181
_cell_length_c 6.3181
_cell_angle_alpha 90
_cell_angle_beta 90
_cell_angle_gamma 90
_cell_volume 252.21
_cell_formula_units_Z 4
_symmetry_space_group_name_H-M 'P 21 3'
_symmetry_Int_Tables_number 198
_refine_ls_R_factor_all 0.0184
loop_
_symmetry_equiv_pos_site_id
_symmetry_equiv_pos_as_xyz
1 '-z+1/2, -x, y+1/2'
2 '-y+1/2, -z, x+1/2'
3 '-x+1/2, -y, z+1/2'
4 '-z, x+1/2, -y+1/2'
5 '-y, z+1/2, -x+1/2'
6 '-x, y+1/2, -z+1/2'
7 'z+1/2, -x+1/2, -y'
8 'y+1/2, -z+1/2, -x'
9 'x+1/2, -y+1/2, -z'
10 'z, x, y'
11 'y, z, x'
12 'x, y, z'
loop_
_atom_type_symbol
_atom_type_oxidation_number
Pd3+ 3
Sb1- -1.5
Se1- -1.5
loop_
_atom_site_label
_atom_site_type_symbol
_atom_site_symmetry_multiplicity
_atom_site_Wyckoff_symbol
_atom_site_fract_x
_atom_site_fract_y
_atom_site_fract_z
_atom_site_B_iso_or_equiv
_atom_site_occupancy
_atom_site_attached_hydrogens
Pd1 Pd3+ 4 a 0.25390(6) 0.74610(6) 0.24610(6) 0.0088(2) 1. 0
Sb1 Sb1- 4 a 0.12677(5) 0.12677(5) 0.12677(5) 0.0096(2) 1. 0
Se1 Se1- 4 a 0.63232(7) 0.86768(7) 0.13232(7) 0.0104(2) 1. 0
loop_
_atom_site_aniso_label
_atom_site_aniso_type_symbol
_atom_site_aniso_U_11
_atom_site_aniso_U_22
_atom_site_aniso_U_33
_atom_site_aniso_U_12
_atom_site_aniso_U_13
_atom_site_aniso_U_23
Pd1 Pd3+ 0.00880(2) 0.00880(2) 0.00880(2) -0.00010(1) -0.00010(1) 0.00010(1)
Sb1 Sb1- 0.00960(2) 0.00960(2) 0.00960(2) 0.00110(1) 0.00110(1) 0.00110(1)
Se1 Se1- 0.01040(2) 0.01040(2) 0.01040(2) -0.00060(2) 0.00060(2) -0.00060(2)
#End of TTdata_171030-ICSD
