
#(C) 2019 by FIZ Karlsruhe - Leibniz Institute for Information Infrastructure.  All rights reserved.
data_181396-ICSD
_database_code_ICSD 181396
_audit_creation_date 2012-02-01
_audit_update_record 2019-02-01
_chemical_name_systematic 'Strontium diplatinum diarsenide'
_chemical_formula_structural 'Sr Pt2 As2'
_chemical_formula_sum 'As2 Pt2 Sr1'
_chemical_name_structure_type Be2CaGe2
_exptl_crystal_density_diffrn 10.42
_publ_section_title
'Electronic structure of novel multiple-band superconductor Sr Pt2 As2'
loop_
_citation_id
_citation_journal_full
_citation_year
_citation_journal_volume
_citation_page_first
_citation_page_last
_citation_journal_id_ASTM
primary 'JETP Letters' 2010 92 751 755 JTPLA2
loop_
_publ_author_name
'Nekrasov, I.A.'
'Sadovskii, M.V.'
_cell_length_a 4.503
_cell_length_b 4.503
_cell_length_c 9.869
_cell_angle_alpha 90.
_cell_angle_beta 90.
_cell_angle_gamma 90.
_cell_volume 200.11
_cell_formula_units_Z 2
_symmetry_space_group_name_H-M 'P 4/n m m Z'
_symmetry_Int_Tables_number 129
loop_
_symmetry_equiv_pos_site_id
_symmetry_equiv_pos_as_xyz
1 'y+1/2, x+1/2, -z'
2 '-y, x+1/2, -z'
3 'y+1/2, -x, -z'
4 '-y, -x, -z'
5 'x+1/2, y+1/2, -z'
6 '-x, y+1/2, -z'
7 'x+1/2, -y, -z'
8 '-x, -y, -z'
9 '-y+1/2, -x+1/2, z'
10 'y, -x+1/2, z'
11 '-y+1/2, x, z'
12 'y, x, z'
13 '-x+1/2, -y+1/2, z'
14 'x, -y+1/2, z'
15 '-x+1/2, y, z'
16 'x, y, z'
loop_
_atom_type_symbol
_atom_type_oxidation_number
Sr2+ 2
Pt2+ 2
As3- -3
Pt2+ 2
As3- -3
loop_
_atom_site_label
_atom_site_type_symbol
_atom_site_symmetry_multiplicity
_atom_site_Wyckoff_symbol
_atom_site_fract_x
_atom_site_fract_y
_atom_site_fract_z
_atom_site_B_iso_or_equiv
_atom_site_occupancy
_atom_site_attached_hydrogens
Sr1 Sr2+ 2 c 0.25 0.25 0.7469 . 1. 0
Pt1 Pt2+ 2 a 0.25 0.75 0 . 1. 0
As1 As3- 2 c 0.25 0.25 0.1263 . 1. 0
Pt2 Pt2+ 2 c 0.25 0.25 0.3817 . 1. 0
As2 As3- 2 b 0.25 0.75 0.5 . 1. 0
#End of TTdata_181396-ICSD