
#(C) 2019 by FIZ Karlsruhe - Leibniz Institute for Information Infrastructure.  All rights reserved.
data_184389-ICSD
_database_code_ICSD 184389
_audit_creation_date 2012-08-01
_audit_update_record 2013-08-01
_chemical_name_systematic 'Uranium cobalt germanium hydride (1/1/1/0.1)'
_chemical_formula_structural 'U Co Ge H0.1'
_chemical_formula_sum 'H0.1 Co1 Ge1 U1'
_chemical_name_structure_type CoUGeHx
_exptl_crystal_density_diffrn 11.76
_publ_section_title 'Lattice anisotropy in uranium ternary compounds: UTX'
_publ_section_comment 'Cell and Type only determined'
loop_
_citation_id
_citation_journal_full
_citation_year
_citation_journal_volume
_citation_page_first
_citation_page_last
_citation_journal_id_ASTM
primary 'Journal of Alloys and Compounds' 2012 522 130 135 JALCEU
loop_
_publ_author_name
'Maskova, S.'
'Adamska, A.M.'
'Havela, L.'
'Kim-Ngan, N.H.'
'Przewoznik, J.'
'Danis, S.'
'Kothapalli, K.'
'Kolomiets, A.V.'
'Heathman, S.'
'Nakotte, H.'
'Bordallo, H.'
_cell_length_a 6.851(1)
_cell_length_b 4.201(1)
_cell_length_c 7.254(1)
_cell_angle_alpha 90.
_cell_angle_beta 90.
_cell_angle_gamma 90.
_cell_volume 208.78
_cell_formula_units_Z 4
_symmetry_space_group_name_H-M 'P n m a'
_symmetry_Int_Tables_number 62
loop_
_symmetry_equiv_pos_site_id
_symmetry_equiv_pos_as_xyz
1 'x+1/2, y, -z+1/2'
2 'x, -y+1/2, z'
3 '-x+1/2, y+1/2, z+1/2'
4 '-x, -y, -z'
5 '-x+1/2, -y, z+1/2'
6 '-x, y+1/2, -z'
7 'x+1/2, -y+1/2, -z+1/2'
8 'x, y, z'
loop_
_atom_type_symbol
_atom_type_oxidation_number
U0+ 0
Co0+ 0
Ge0+ 0
H0+ 0
loop_
_atom_site_label
_atom_site_type_symbol
_atom_site_symmetry_multiplicity
_atom_site_Wyckoff_symbol
_atom_site_fract_x
_atom_site_fract_y
_atom_site_fract_z
_atom_site_B_iso_or_equiv
_atom_site_occupancy
_atom_site_attached_hydrogens
U1 U0+ 4 c 0.01 0.25 0.708 . 1. 0
Co1 Co0+ 4 c 0.289 0.25 0.417 . 1. 0
Ge1 Ge0+ 4 c 0.197 0.25 0.087 . 1. 0
#End of TTdata_184389-ICSD