
#(C) 2019 by FIZ Karlsruhe - Leibniz Institute for Information Infrastructure.  All rights reserved.
data_185377-ICSD
_database_code_ICSD 185377
_audit_creation_date 2013-02-01
_chemical_name_systematic 'Calcium iridium silicide (1/1/3)'
_chemical_formula_structural 'Ca Ir Si3'
_chemical_formula_sum 'Ca1 Ir1 Si3'
_chemical_name_structure_type BaNiSn3
_exptl_crystal_density_diffrn 5.99
_publ_section_title

;
Structural and electronic properties and the Fermis surface of the new
non-centrosymmetric superconductors: 3.6 K Ca Ir Si3 and 2.3 K Ca Pt Si3
;
loop_
_citation_id
_citation_journal_full
_citation_year
_citation_journal_volume
_citation_page_first
_citation_page_last
_citation_journal_id_ASTM
primary 'JETP Letters' 2010 92 343 347 JTPLA2
loop_
_publ_author_name
'Bannikov, V.V.'
'Shein, I.R.'
'Ivanovskii, A.L.'
_cell_length_a 4.1603
_cell_length_b 4.1603
_cell_length_c 10.1644
_cell_angle_alpha 90.
_cell_angle_beta 90.
_cell_angle_gamma 90.
_cell_volume 175.93
_cell_formula_units_Z 2
_symmetry_space_group_name_H-M 'I 4 m m'
_symmetry_Int_Tables_number 107
loop_
_symmetry_equiv_pos_site_id
_symmetry_equiv_pos_as_xyz
1 '-y, x, z'
2 'y, -x, z'
3 '-y, -x, z'
4 'y, x, z'
5 'x, -y, z'
6 '-x, y, z'
7 '-x, -y, z'
8 'x, y, z'
9 '-y+1/2, x+1/2, z+1/2'
10 'y+1/2, -x+1/2, z+1/2'
11 '-y+1/2, -x+1/2, z+1/2'
12 'y+1/2, x+1/2, z+1/2'
13 'x+1/2, -y+1/2, z+1/2'
14 '-x+1/2, y+1/2, z+1/2'
15 '-x+1/2, -y+1/2, z+1/2'
16 'x+1/2, y+1/2, z+1/2'
loop_
_atom_type_symbol
_atom_type_oxidation_number
Ca0+ 0
Ir0+ 0
Si0+ 0
loop_
_atom_site_label
_atom_site_type_symbol
_atom_site_symmetry_multiplicity
_atom_site_Wyckoff_symbol
_atom_site_fract_x
_atom_site_fract_y
_atom_site_fract_z
_atom_site_B_iso_or_equiv
_atom_site_occupancy
_atom_site_attached_hydrogens
Ca1 Ca0+ 2 a 0 0 0 . 1. 0
Ir1 Ir0+ 2 a 0 0 0.6416 . 1. 0
Si1 Si0+ 2 a 0 0 0.4097 . 1. 0
Si2 Si0+ 4 b 0 0.5 0.2569 . 1. 0
#End of TTdata_185377-ICSD