
#(C) 2019 by FIZ Karlsruhe - Leibniz Institute for Information Infrastructure.  All rights reserved.
data_189362-ICSD
_database_code_ICSD 189362
_audit_creation_date 2014-02-01
_audit_update_record 2016-02-01
_chemical_name_systematic 'Barium iridium germanide (1/2/7)'
_chemical_formula_structural 'Ba Ir2 Ge7'
_chemical_formula_sum 'Ba1 Ge7 Ir2'
_exptl_crystal_density_diffrn 8.79
_cell_measurement_temperature 293.
_publ_section_title

;
Clathrate formation in the systems Ba - Ir - Ge and Ba - {Rh, Ir} - Si:
Crystal chemistry and phase relations
;
loop_
_citation_id
_citation_journal_full
_citation_year
_citation_journal_volume
_citation_page_first
_citation_page_last
_citation_journal_id_ASTM
primary Intermetallics 2013 36 61 72 IERME5
loop_
_publ_author_name
'Falmbigl, M.'
'Grytsiv, A.'
'Rogl, P.'
'Giester, G.'
_cell_length_a 37.7822(12)
_cell_length_b 6.4099(2)
_cell_length_c 6.4401(2)
_cell_angle_alpha 90.
_cell_angle_beta 90.
_cell_angle_gamma 90.
_cell_volume 1559.66
_cell_formula_units_Z 8
_symmetry_space_group_name_H-M 'P m n a'
_symmetry_Int_Tables_number 53
_refine_ls_R_factor_all 0.0331
loop_
_symmetry_equiv_pos_site_id
_symmetry_equiv_pos_as_xyz
1 'x+1/2, y, -z+1/2'
2 'x+1/2, -y, z+1/2'
3 '-x, y, z'
4 '-x, -y, -z'
5 '-x+1/2, -y, z+1/2'
6 '-x+1/2, y, -z+1/2'
7 'x, -y, -z'
8 'x, y, z'
loop_
_atom_type_symbol
_atom_type_oxidation_number
Ba0+ 0
Ir0+ 0
Ge0+ 0
loop_
_atom_site_label
_atom_site_type_symbol
_atom_site_symmetry_multiplicity
_atom_site_Wyckoff_symbol
_atom_site_fract_x
_atom_site_fract_y
_atom_site_fract_z
_atom_site_B_iso_or_equiv
_atom_site_occupancy
_atom_site_attached_hydrogens
Ba1 Ba0+ 2 a 0 0 0 . 1. 0
Ba2 Ba0+ 2 c 0.5 0.5 0 . 1. 0
Ba3 Ba0+ 4 e 0.35695(3) 0 0 . 1. 0
Ir1 Ir0+ 4 e 0.21112(2) 0 0 0.0066(2) 1. 0
Ir2 Ir0+ 4 e 0.09811(2) 0 0 0.0069(2) 1. 0
Ir3 Ir0+ 4 f 0.10071(2) 0.5 0 0.0063(5) 1. 0
Ir4 Ir0+ 4 f 0.29058(2) 0.5 0 0.0088(2) 1. 0
Ge1 Ge0+ 4 e 0.46702(5) 0 0 0.0124(4) 1. 0
Ge2 Ge0+ 4 f 0.03284(5) 0.5 0 0.0126(4) 1. 0
Ge3 Ge0+ 8 i 0.27782(4) 0.1414(2) 0.1361(2) 0.0102(3) 1. 0
Ge4 Ge0+ 8 i 0.22120(4) 0.6400(2) 0.1344(2) 0.0119(3) 1. 0
Ge5 Ge0+ 8 i 0.15345(3) 0.2138(2) 0.0054(3) 0.0090(3) 1. 0
Ge6 Ge0+ 8 i 0.15284(3) 0.4980(3) 0.2837(2) 0.0100(2) 1. 0
Ge7 Ge0+ 8 i 0.0722(1) 0.2493(2) 0.2501(2) 0.0073(9) 1. 0
Ge8 Ge0+ 8 i 0.0718(1) 0.2493(2) 0.7500(2) 0.015(1) 1. 0
loop_
_atom_site_aniso_label
_atom_site_aniso_type_symbol
_atom_site_aniso_U_11
_atom_site_aniso_U_22
_atom_site_aniso_U_33
_atom_site_aniso_U_12
_atom_site_aniso_U_13
_atom_site_aniso_U_23
Ba1 Ba0+ 0.0091(7) 0.0102(7) 0.0107(7) 0. 0. 0.
Ba2 Ba0+ 0.0085(6) 0.0109(7) 0.0104(7) 0. 0. 0.
Ba3 Ba0+ 0.0091(5) 0.0125(5) 0.0123(5) 0. 0. 0.
#End of TTdata_189362-ICSD