
#(C) 2019 by FIZ Karlsruhe - Leibniz Institute for Information Infrastructure.  All rights reserved.
data_189724-ICSD
_database_code_ICSD 189724
_audit_creation_date 2014-02-01
_chemical_name_systematic 'Lanthanum palladium antimonide (1/2/2)'
_chemical_formula_structural 'La Pd2 Sb2'
_chemical_formula_sum 'La1 Pd2 Sb2'
_chemical_name_structure_type Be2CaGe2
_exptl_crystal_density_diffrn 9.23
_cell_measurement_temperature 293.
_publ_section_title
'La Pd2 Sb2: A pnictide superconductor with Ca Be2 Ge2 type structure'
loop_
_citation_id
_citation_journal_full
_citation_year
_citation_journal_volume
_citation_page_first
_citation_page_last
_citation_journal_id_ASTM
primary 'Journal of Alloys and Compounds' 2014 583 151 154 JALCEU
loop_
_publ_author_name
'Ganesanpotti, Subodh'
'Yajima, Takeshi'
'Tohyama, Takami'
'Li, Zhi'
'Nakano, Kousuke'
'Nozaki, Yasumasa'
'Tassel, Cedric'
'Kobayashi, Yoji'
'Kageyama, Hiroshi'
_cell_length_a 4.568(4)
_cell_length_b 4.568(4)
_cell_length_c 10.266(2)
_cell_angle_alpha 90.
_cell_angle_beta 90.
_cell_angle_gamma 90.
_cell_volume 214.22
_cell_formula_units_Z 2
_symmetry_space_group_name_H-M 'P 4/n m m S'
_symmetry_Int_Tables_number 129
_refine_ls_R_factor_all 0.0153
loop_
_symmetry_equiv_pos_site_id
_symmetry_equiv_pos_as_xyz
1 '-y+1/2, -x+1/2, z'
2 'y+1/2, x+1/2, z'
3 '-y, -x, -z'
4 'y, x, -z'
5 'y+1/2, -x+1/2, z'
6 '-y+1/2, x+1/2, z'
7 'y, -x, -z'
8 '-y, x, -z'
9 'x+1/2, -y+1/2, -z'
10 '-x+1/2, y+1/2, -z'
11 'x, -y, z'
12 '-x, y, z'
13 '-x+1/2, -y+1/2, -z'
14 'x+1/2, y+1/2, -z'
15 '-x, -y, z'
16 'x, y, z'
loop_
_atom_type_symbol
_atom_type_oxidation_number
La0+ 0
Sb0+ 0
Pd0+ 0
loop_
_atom_site_label
_atom_site_type_symbol
_atom_site_symmetry_multiplicity
_atom_site_Wyckoff_symbol
_atom_site_fract_x
_atom_site_fract_y
_atom_site_fract_z
_atom_site_B_iso_or_equiv
_atom_site_occupancy
_atom_site_attached_hydrogens
La1 La0+ 2 c 0 0.5 0.7531(7) 0.0050(8) 1. 0
Sb1 Sb0+ 2 b 0.5 0.5 0.5 0.0559(18) 1. 0
Sb2 Sb0+ 2 c 0 0.5 0.1434(5) 0.0151(8) 1. 0
Pd1 Pd0+ 2 a 0.5 0.5 0 0.0077(10) 1. 0
Pd2 Pd0+ 2 c 0 0.5 0.3883(8) 0.0441(15) 1. 0
#End of TTdata_189724-ICSD