
#(C) 2019 by FIZ Karlsruhe - Leibniz Institute for Information Infrastructure.  All rights reserved.
data_189911-ICSD
_database_code_ICSD 189911
_audit_creation_date 2014-08-01
_chemical_name_systematic 'Thorium platinum germanide (1/4/12)'
_chemical_formula_structural 'Th Pt4 Ge12'
_chemical_formula_sum 'Ge12 Pt4 Th1'
_chemical_name_structure_type LaFe4P12
_exptl_crystal_density_diffrn 9.86
_cell_measurement_temperature 300.
_publ_section_title
'Superconductivity and spin fluctuations in {Th, U} Pt4 Ge12 skutterudites'
loop_
_citation_id
_citation_journal_full
_citation_year
_citation_journal_volume
_citation_page_first
_citation_page_last
_citation_journal_id_ASTM
primary 'Physical Review B: Condensed Matter and Materials Physics' 2008 78
064516-1 064516-6 PRBMDO
loop_
_publ_author_name
'E. Bauer'
'Xing-Qiu Chen'
'P. Rogl'
'G. Hilscher'
'H. Michor'
'E. Royanian'
'R. Podloucky'
'G. Giester'
'O. Sologub'
'A.P. Goncalves'
_cell_length_a 8.5931(3)
_cell_length_b 8.5931(3)
_cell_length_c 8.5931(3)
_cell_angle_alpha 90.
_cell_angle_beta 90.
_cell_angle_gamma 90.
_cell_volume 634.53
_cell_formula_units_Z 2
_symmetry_space_group_name_H-M 'I m -3'
_symmetry_Int_Tables_number 204
_refine_ls_R_factor_all 0.057
loop_
_symmetry_equiv_pos_site_id
_symmetry_equiv_pos_as_xyz
1 '-z, x, y'
2 'z, x, -y'
3 'z, -x, y'
4 '-z, -x, -y'
5 'y, -z, x'
6 '-y, z, x'
7 'y, z, -x'
8 '-y, -z, -x'
9 'x, y, -z'
10 'x, -y, z'
11 '-x, y, z'
12 '-x, -y, -z'
13 'z, -x, -y'
14 '-z, -x, y'
15 '-z, x, -y'
16 'z, x, y'
17 '-y, z, -x'
18 'y, -z, -x'
19 '-y, -z, x'
20 'y, z, x'
21 '-x, -y, z'
22 '-x, y, -z'
23 'x, -y, -z'
24 'x, y, z'
25 '-z+1/2, x+1/2, y+1/2'
26 'z+1/2, x+1/2, -y+1/2'
27 'z+1/2, -x+1/2, y+1/2'
28 '-z+1/2, -x+1/2, -y+1/2'
29 'y+1/2, -z+1/2, x+1/2'
30 '-y+1/2, z+1/2, x+1/2'
31 'y+1/2, z+1/2, -x+1/2'
32 '-y+1/2, -z+1/2, -x+1/2'
33 'x+1/2, y+1/2, -z+1/2'
34 'x+1/2, -y+1/2, z+1/2'
35 '-x+1/2, y+1/2, z+1/2'
36 '-x+1/2, -y+1/2, -z+1/2'
37 'z+1/2, -x+1/2, -y+1/2'
38 '-z+1/2, -x+1/2, y+1/2'
39 '-z+1/2, x+1/2, -y+1/2'
40 'z+1/2, x+1/2, y+1/2'
41 '-y+1/2, z+1/2, -x+1/2'
42 'y+1/2, -z+1/2, -x+1/2'
43 '-y+1/2, -z+1/2, x+1/2'
44 'y+1/2, z+1/2, x+1/2'
45 '-x+1/2, -y+1/2, z+1/2'
46 '-x+1/2, y+1/2, -z+1/2'
47 'x+1/2, -y+1/2, -z+1/2'
48 'x+1/2, y+1/2, z+1/2'
loop_
_atom_type_symbol
_atom_type_oxidation_number
Th0+ 0
Pt0+ 0
Ge0+ 0
loop_
_atom_site_label
_atom_site_type_symbol
_atom_site_symmetry_multiplicity
_atom_site_Wyckoff_symbol
_atom_site_fract_x
_atom_site_fract_y
_atom_site_fract_z
_atom_site_B_iso_or_equiv
_atom_site_occupancy
_atom_site_attached_hydrogens
Th1 Th0+ 2 a 0 0 0 0.00012(1) 1. 0
Pt1 Pt0+ 8 c 0.25 0.25 0.25 0.00009(1) 1. 0
Ge1 Ge0+ 24 g 0 0.1515(3) 0.3556(3) 0.00010(2) 1. 0
loop_
_atom_site_aniso_label
_atom_site_aniso_type_symbol
_atom_site_aniso_U_11
_atom_site_aniso_U_22
_atom_site_aniso_U_33
_atom_site_aniso_U_12
_atom_site_aniso_U_13
_atom_site_aniso_U_23
Th1 Th0+ 0.00012(1) 0.00012(1) 0.00012(1) 0. 0. 0.
Pt1 Pt0+ 0.00009(1) 0.00009(1) 0.00009(1) 0. 0. 0.
#End of TTdata_189911-ICSD