
#(C) 2019 by FIZ Karlsruhe - Leibniz Institute for Information Infrastructure.  All rights reserved.
data_190890-ICSD
_database_code_ICSD 190890
_audit_creation_date 2014-08-01
_chemical_name_systematic 'Iridium ditelluride'
_chemical_formula_structural 'Ir Te2'
_chemical_formula_sum 'Ir1 Te2'
_exptl_crystal_density_diffrn 10.48
_cell_measurement_temperature 20.
_publ_section_title
'Switching of conducting planes by partial dimer formation in Ir Te2'
loop_
_citation_id
_citation_journal_full
_citation_year
_citation_journal_volume
_citation_page_first
_citation_page_last
_citation_journal_id_ASTM
primary 'Journal of the Physical Society of Japan' 2014 83 033701-1 033701-5
JUPSAU
loop_
_publ_author_name
'Toriyama, Tatsuya'
'Kobori, Masao'
'Konishi, Takehisa'
'Ohta, Yukinori'
'Sugimoto, Kunihisa'
'Kim, Jungeun'
'Fujiwara, Akihiko'
'Pyon, Sunseng'
'Kudo, Kazutaka'
'Nohara, Minoru'
_cell_length_a 3.94860(10)
_cell_length_b 6.64480(10)
_cell_length_c 14.4045(3)
_cell_angle_alpha 80.245(6)
_cell_angle_beta 87.404(6)
_cell_angle_gamma 72.511(5)
_cell_volume 355.25
_cell_formula_units_Z 5
_symmetry_space_group_name_H-M 'P -1'
_symmetry_Int_Tables_number 2
_refine_ls_R_factor_all 0.0754
loop_
_symmetry_equiv_pos_site_id
_symmetry_equiv_pos_as_xyz
1 '-x, -y, -z'
2 'x, y, z'
loop_
_atom_type_symbol
_atom_type_oxidation_number
Ir4+ 4
Te2- -2
loop_
_atom_site_label
_atom_site_type_symbol
_atom_site_symmetry_multiplicity
_atom_site_Wyckoff_symbol
_atom_site_fract_x
_atom_site_fract_y
_atom_site_fract_z
_atom_site_B_iso_or_equiv
_atom_site_occupancy
_atom_site_attached_hydrogens
Ir1 Ir4+ 1 a 0 0 0 0.00356(6) 1. 0
Ir2 Ir4+ 2 i 0.36069(5) 0.21315(3) 0.203394(15) 0.00357(6) 1. 0
Ir3 Ir4+ 2 i -0.29000(6) 0.43031(4) 0.411623(16) 0.00360(6) 1. 0
Te1 Te2- 2 i -0.00026(11) -0.05426(7) 0.18477(3) 0.00381(7) 1. 0
Te2 Te2- 2 i 0.36127(11) 0.27091(6) 0.01679(3) 0.00377(7) 1. 0
Te3 Te2- 2 i 0.35701(10) 0.15939(6) 0.38782(3) 0.00385(7) 1. 0
Te4 Te2- 2 i -0.27774(11) 0.48038(7) 0.22267(3) 0.00386(7) 1. 0
Te5 Te2- 2 i 0.08129(10) 0.70076(6) 0.41086(3) 0.00386(7) 1. 0
#End of TTdata_190890-ICSD