
#(C) 2019 by FIZ Karlsruhe - Leibniz Institute for Information Infrastructure.  All rights reserved.
data_194235-ICSD
_database_code_ICSD 194235
_audit_creation_date 2015-08-01
_chemical_name_systematic 'Barium iridium germanide (3/4/16)'
_chemical_formula_structural 'Ba3 Ir4 Ge16'
_chemical_formula_sum 'Ba3 Ge16 Ir4'
_chemical_name_structure_type Ba3Ge16Ir4
_exptl_crystal_density_diffrn 8.17
_publ_section_title

;
Crystal structure and superconductivity of Ba Ir2 Ge7 and Ba3 Ir4 Ge16 with
two-dimensional Ba - Ge networks
;
loop_
_citation_id
_citation_journal_full
_citation_year
_citation_journal_volume
_citation_page_first
_citation_page_last
_citation_journal_id_ASTM
primary 'Journal of the American Chemical Society' 2014 136 5245 5248 JACSAT
loop_
_publ_author_name
'Ishida, Shigeyuki'
'Yanagi, Yousuke'
'Oka, Kunihiko'
'Kataoka, Kunimitsu'
'Fujihisa, Hiroshi'
'Kito, Hijiri'
'Yoshida, Yoshiyuki'
'Iyo, Akira'
'Hase, Izumi'
'Gotoh, Yoshito'
'Eisaki, Hiroshi'
_cell_length_a 6.5442(4)
_cell_length_b 6.5442(4)
_cell_length_c 22.2833(11)
_cell_angle_alpha 90.
_cell_angle_beta 90.
_cell_angle_gamma 90.
_cell_volume 954.32
_cell_formula_units_Z 2
_symmetry_space_group_name_H-M 'I 4/m m m'
_symmetry_Int_Tables_number 139
loop_
_symmetry_equiv_pos_site_id
_symmetry_equiv_pos_as_xyz
1 'y, x, -z'
2 '-y, -x, -z'
3 '-y, x, -z'
4 'y, -x, -z'
5 '-x, y, -z'
6 'x, -y, -z'
7 'x, y, -z'
8 '-x, -y, -z'
9 '-y, -x, z'
10 'y, x, z'
11 'y, -x, z'
12 '-y, x, z'
13 'x, -y, z'
14 '-x, y, z'
15 '-x, -y, z'
16 'x, y, z'
17 'y+1/2, x+1/2, -z+1/2'
18 '-y+1/2, -x+1/2, -z+1/2'
19 '-y+1/2, x+1/2, -z+1/2'
20 'y+1/2, -x+1/2, -z+1/2'
21 '-x+1/2, y+1/2, -z+1/2'
22 'x+1/2, -y+1/2, -z+1/2'
23 'x+1/2, y+1/2, -z+1/2'
24 '-x+1/2, -y+1/2, -z+1/2'
25 '-y+1/2, -x+1/2, z+1/2'
26 'y+1/2, x+1/2, z+1/2'
27 'y+1/2, -x+1/2, z+1/2'
28 '-y+1/2, x+1/2, z+1/2'
29 'x+1/2, -y+1/2, z+1/2'
30 '-x+1/2, y+1/2, z+1/2'
31 '-x+1/2, -y+1/2, z+1/2'
32 'x+1/2, y+1/2, z+1/2'
loop_
_atom_type_symbol
_atom_type_oxidation_number
Ba0+ 0
Ir0+ 0
Ge0+ 0
loop_
_atom_site_label
_atom_site_type_symbol
_atom_site_symmetry_multiplicity
_atom_site_Wyckoff_symbol
_atom_site_fract_x
_atom_site_fract_y
_atom_site_fract_z
_atom_site_B_iso_or_equiv
_atom_site_occupancy
_atom_site_attached_hydrogens
Ba1 Ba0+ 2 a 0 0 0 0.008(2) 1. 0
Ba2 Ba0+ 4 d 0 0.5 0.25 0.005(2) 1. 0
Ir1 Ir0+ 8 g 0 0.5 0.0897(2) 0.005(1) 1. 0
Ge1 Ge0+ 16 m 0.2424(6) 0.2424(6) 0.1291(4) 0.014(2) 1. 0
Ge2 Ge0+ 8 j 0.230(1) 0.5 0 0.006(2) 1. 0
Ge3 Ge0+ 4 e 0 0 0.1973(5) 0.006(2) 1. 0
Ge4 Ge0+ 4 e 0 0 0.3098(5) 0.008(3) 1. 0
loop_
_atom_site_aniso_label
_atom_site_aniso_type_symbol
_atom_site_aniso_U_11
_atom_site_aniso_U_22
_atom_site_aniso_U_33
_atom_site_aniso_U_12
_atom_site_aniso_U_13
_atom_site_aniso_U_23
Ba1 Ba0+ 0.007(2) 0.011(2) 0.015(2) 0. 0. 0.
#End of TTdata_194235-ICSD