
#(C) 2019 by FIZ Karlsruhe - Leibniz Institute for Information Infrastructure.  All rights reserved.
data_195017-ICSD
_database_code_ICSD 195017
_audit_creation_date 2015-08-01
_chemical_name_systematic 'Barium diplatinum diantimonide'
_chemical_formula_structural 'Ba Pt2 Sb2'
_chemical_formula_sum 'Ba1 Pt2 Sb2'
_exptl_crystal_density_diffrn 10.81
_publ_section_title 'Superconductivity in 122-type antimonide Ba Pt2 Sb2'
loop_
_citation_id
_citation_journal_full
_citation_year
_citation_journal_volume
_citation_page_first
_citation_page_last
_citation_journal_id_ASTM
primary 'Physical Review B: Condensed Matter and Materials Physics' 2015 91
014513-1 014513-8 PRBMDO
loop_
_publ_author_name
'Imai, Motoharu'
'Ibuka, Soshi'
'Kikugawa, Naoki'
'Terashima, Taichi'
'Uji, Shinya'
'Yajima, Takeshi'
'Kageyama, Hiroshi'
'Hase, Izumi'
_cell_length_a 6.70156(10)
_cell_length_b 6.75246(10)
_cell_length_c 10.47440(14)
_cell_angle_alpha 90.
_cell_angle_beta 91.2274(9)
_cell_angle_gamma 90.
_cell_volume 473.88
_cell_formula_units_Z 4
_symmetry_space_group_name_H-M 'C 1 2/m 1'
_symmetry_Int_Tables_number 12
_refine_ls_R_factor_all 0.0457
loop_
_symmetry_equiv_pos_site_id
_symmetry_equiv_pos_as_xyz
1 '-x, y, -z'
2 '-x, -y, -z'
3 'x, -y, z'
4 'x, y, z'
5 '-x+1/2, y+1/2, -z'
6 '-x+1/2, -y+1/2, -z'
7 'x+1/2, -y+1/2, z'
8 'x+1/2, y+1/2, z'
loop_
_atom_type_symbol
_atom_type_oxidation_number
Ba2+ 2
Pt2+ 2
Sb3- -3
loop_
_atom_site_label
_atom_site_type_symbol
_atom_site_symmetry_multiplicity
_atom_site_Wyckoff_symbol
_atom_site_fract_x
_atom_site_fract_y
_atom_site_fract_z
_atom_site_B_iso_or_equiv
_atom_site_occupancy
_atom_site_attached_hydrogens
Ba1 Ba2+ 4 i 0.2549(6) 0 0.7531(4) . 1. 0
Pt1 Pt2+ 4 g 0 0.2823(3) 0 . 1. 0
Pt2 Pt2+ 4 i 0.2472(3) 0 0.3791(2) . 1. 0
Sb1 Sb3- 4 h 0 0.2505(4) 0.5 . 1. 0
Sb2 Sb3- 4 i 0.2276(5) 0 0.1206(3) . 1. 0
#End of TTdata_195017-ICSD