
#(C) 2019 by FIZ Karlsruhe - Leibniz Institute for Information Infrastructure.  All rights reserved.
data_230026-ICSD
_database_code_ICSD 230026
_audit_creation_date 2019-02-01
_chemical_name_systematic 'Europium bismuth sufide fluoride (3/2/4/4)'
_chemical_formula_structural 'Eu3 Bi2 S4 F4'
_chemical_formula_sum 'Bi2 Eu3 F4 S4'
_exptl_crystal_density_diffrn 6.67
_publ_section_title

;
Single crystal growth and physical properties of BiS2-layered compound
Eu3Bi2S4F4
;
loop_
_citation_id
_citation_journal_full
_citation_year
_citation_journal_volume
_citation_page_first
_citation_page_last
_citation_journal_id_ASTM
primary 'Physica B: Condensed Matter (Amsterdam, Netherlands)' 2018 536 824 826
PHYBE3
loop_
_publ_author_name
'Higashinaka, Ryuji'
'Endo, Hideaki'
'Kajitani, Joe'
'Matsuda, Tatsuma D.'
'Aoki, Yuji'
_cell_length_a 4.0748(11)
_cell_length_b 4.0748(11)
_cell_length_c 32.340(9)
_cell_angle_alpha 90.
_cell_angle_beta 90.
_cell_angle_gamma 90.
_cell_volume 536.97
_cell_formula_units_Z 2
_symmetry_space_group_name_H-M 'I 4/m m m'
_symmetry_Int_Tables_number 139
_refine_ls_R_factor_all 0.037
loop_
_symmetry_equiv_pos_site_id
_symmetry_equiv_pos_as_xyz
1 'y, x, -z'
2 '-y, -x, -z'
3 '-y, x, -z'
4 'y, -x, -z'
5 '-x, y, -z'
6 'x, -y, -z'
7 'x, y, -z'
8 '-x, -y, -z'
9 '-y, -x, z'
10 'y, x, z'
11 'y, -x, z'
12 '-y, x, z'
13 'x, -y, z'
14 '-x, y, z'
15 '-x, -y, z'
16 'x, y, z'
17 'y+1/2, x+1/2, -z+1/2'
18 '-y+1/2, -x+1/2, -z+1/2'
19 '-y+1/2, x+1/2, -z+1/2'
20 'y+1/2, -x+1/2, -z+1/2'
21 '-x+1/2, y+1/2, -z+1/2'
22 'x+1/2, -y+1/2, -z+1/2'
23 'x+1/2, y+1/2, -z+1/2'
24 '-x+1/2, -y+1/2, -z+1/2'
25 '-y+1/2, -x+1/2, z+1/2'
26 'y+1/2, x+1/2, z+1/2'
27 'y+1/2, -x+1/2, z+1/2'
28 '-y+1/2, x+1/2, z+1/2'
29 'x+1/2, -y+1/2, z+1/2'
30 '-x+1/2, y+1/2, z+1/2'
31 '-x+1/2, -y+1/2, z+1/2'
32 'x+1/2, y+1/2, z+1/2'
loop_
_atom_type_symbol
_atom_type_oxidation_number
Eu2+ 2
Bi3+ 3
S2- -2
F1- -1
loop_
_atom_site_label
_atom_site_type_symbol
_atom_site_symmetry_multiplicity
_atom_site_Wyckoff_symbol
_atom_site_fract_x
_atom_site_fract_y
_atom_site_fract_z
_atom_site_B_iso_or_equiv
_atom_site_occupancy
_atom_site_attached_hydrogens
Eu1 Eu2+ 4 e 0 0 0.40706(4) 0.73(4) 1. 0
Eu2 Eu2+ 2 a 0 0 0 0.56(4) 1. 0
Bi1 Bi3+ 4 e 0 0 0.19807(3) 1.26(4) 1. 0
S1 S2- 4 e 0 0 0.12024(18) 0.82(10) 1. 0
S2 S2- 4 e 0 0 0.30103(19) 1.64(14) 1. 0
F1 F1- 8 g 0 0.5 0.0414(3) 1.26(19) 1. 0
#End of TTdata_230026-ICSD