
#(C) 2019 by FIZ Karlsruhe - Leibniz Institute for Information Infrastructure.  All rights reserved.
data_23188-ICSD
_database_code_ICSD 23188
_audit_creation_date 1986-10-06
_audit_update_record 2014-08-01
_chemical_name_systematic 'Molybdenum boride carbide (2/1/1)'
_chemical_formula_structural 'Mo2 B C'
_chemical_formula_sum 'C1 B1 Mo2'
_chemical_name_structure_type Mo2BC
_exptl_crystal_density_diffrn 8.74
_publ_section_title 'Determination of the light-atom positions in Mo2 B C'
loop_
_citation_id
_citation_journal_full
_citation_year
_citation_journal_volume
_citation_page_first
_citation_page_last
_citation_journal_id_ASTM
primary

;
Acta Crystallographica, Section B: Structural Crystallography and Crystal
Chemistry
; 1969 25 698 701 ACBCAR
loop_
_publ_author_name
'Smith, G.S.'
'Tharp, A.G.'
'Johnson, Q.'
_cell_length_a 3.086
_cell_length_b 17.35
_cell_length_c 3.047
_cell_angle_alpha 90.
_cell_angle_beta 90.
_cell_angle_gamma 90.
_cell_volume 163.14
_cell_formula_units_Z 4
_symmetry_space_group_name_H-M 'C m c m'
_symmetry_Int_Tables_number 63
_refine_ls_R_factor_all 0.035
loop_
_symmetry_equiv_pos_site_id
_symmetry_equiv_pos_as_xyz
1 '-x, y, -z+1/2'
2 '-x, -y, z+1/2'
3 '-x, y, z'
4 '-x, -y, -z'
5 'x, -y, z+1/2'
6 'x, y, -z+1/2'
7 'x, -y, -z'
8 'x, y, z'
9 '-x+1/2, y+1/2, -z+1/2'
10 '-x+1/2, -y+1/2, z+1/2'
11 '-x+1/2, y+1/2, z'
12 '-x+1/2, -y+1/2, -z'
13 'x+1/2, -y+1/2, z+1/2'
14 'x+1/2, y+1/2, -z+1/2'
15 'x+1/2, -y+1/2, -z'
16 'x+1/2, y+1/2, z'
loop_
_atom_type_symbol
_atom_type_oxidation_number
Mo0+ 0
B0+ 0
C0+ 0
loop_
_atom_site_label
_atom_site_type_symbol
_atom_site_symmetry_multiplicity
_atom_site_Wyckoff_symbol
_atom_site_fract_x
_atom_site_fract_y
_atom_site_fract_z
_atom_site_B_iso_or_equiv
_atom_site_occupancy
_atom_site_attached_hydrogens
Mo1 Mo0+ 4 c 0 0.0721(1) 0.25 0.3(1) 1. 0
Mo2 Mo0+ 4 c 0 0.3139(1) 0.25 0.5(1) 1. 0
B1 B0+ 4 c 0 0.4731(18) 0.25 1.1(6) 1. 0
C1 C0+ 4 c 0 0.1920(15) 0.25 1.2 1. 0
#End of TTdata_23188-ICSD
