
#(C) 2019 by FIZ Karlsruhe - Leibniz Institute for Information Infrastructure.  All rights reserved.
data_237706-ICSD
_database_code_ICSD 237706
_audit_creation_date 2015-02-01
_chemical_name_systematic 'Molybdenum phosphide (1/3)'
_chemical_formula_structural 'Mo3 P'
_chemical_formula_sum 'Mo3 P1'
_chemical_name_structure_type V3S
_exptl_crystal_density_diffrn 9.15
_cell_measurement_temperature 173.
_publ_section_title

;
Phase equilibria in the Mo-Fe-P system at 800.degree.C and structure of
ternary phosphide (Mo1-x Fex)3P (0.10 <= x <= 0.15)
;
loop_
_citation_id
_citation_journal_full
_citation_year
_citation_journal_volume
_citation_page_first
_citation_page_last
_citation_journal_id_ASTM
primary 'Inorganic Chemistry' 2013 52 983 991 INOCAJ
loop_
_publ_author_name
'Oliynyk, Anton O.'
'Lomnytska, Yaroslava F.'
'Dzevenko, Mariya V.'
'Stoyko, Stanislav S.'
'Mar, Arthur'
_cell_length_a 9.7925(11)
_cell_length_b 9.7925(11)
_cell_length_c 4.8246(6)
_cell_angle_alpha 90.
_cell_angle_beta 90.
_cell_angle_gamma 90.
_cell_volume 462.64
_cell_formula_units_Z 8
_symmetry_space_group_name_H-M 'I -4 2 m'
_symmetry_Int_Tables_number 121
_refine_ls_R_factor_all 0.0149
loop_
_symmetry_equiv_pos_site_id
_symmetry_equiv_pos_as_xyz
1 '-y, -x, z'
2 'y, x, z'
3 'y, -x, -z'
4 '-y, x, -z'
5 'x, -y, -z'
6 '-x, y, -z'
7 '-x, -y, z'
8 'x, y, z'
9 '-y+1/2, -x+1/2, z+1/2'
10 'y+1/2, x+1/2, z+1/2'
11 'y+1/2, -x+1/2, -z+1/2'
12 '-y+1/2, x+1/2, -z+1/2'
13 'x+1/2, -y+1/2, -z+1/2'
14 '-x+1/2, y+1/2, -z+1/2'
15 '-x+1/2, -y+1/2, z+1/2'
16 'x+1/2, y+1/2, z+1/2'
loop_
_atom_type_symbol
_atom_type_oxidation_number
Mo0+ 0
P0+ 0
loop_
_atom_site_label
_atom_site_type_symbol
_atom_site_symmetry_multiplicity
_atom_site_Wyckoff_symbol
_atom_site_fract_x
_atom_site_fract_y
_atom_site_fract_z
_atom_site_B_iso_or_equiv
_atom_site_occupancy
_atom_site_attached_hydrogens
Mo1 Mo0+ 8 i 0.09256(3) 0.09256(3) 0.26622(10) 0.00317(10) 1 0
Mo2 Mo0+ 8 i 0.29874(3) 0.29874(3) 0.26637(10) 0.00323(10) 1 0
Mo3 Mo0+ 8 g 0.35500(4) 0. 0.5 0.00292(10) 1 0
P1 P0+ 8 f 0.29134(13) 0. 0. 0.0035(2) 1 0
loop_
_atom_site_aniso_label
_atom_site_aniso_type_symbol
_atom_site_aniso_U_11
_atom_site_aniso_U_22
_atom_site_aniso_U_33
_atom_site_aniso_U_12
_atom_site_aniso_U_13
_atom_site_aniso_U_23
Mo1 Mo0+ 0.00304(12) 0.00304(12) 0.00344(19) 0.00001(13) 0.00001(12) 0.00001(12)
Mo2 Mo0+ 0.00342(12) 0.00342(12) 0.00286(18) 0.00007(14) -0.00023(11)
-0.00023(11)
Mo3 Mo0+ 0.00296(18) 0.00324(18) 0.00255(17) 0. 0. -0.00014(19)
P1 P0+ 0.0023(5) 0.0049(5) 0.0031(5) 0. 0. -0.0004(6)
#End of TTdata_237706-ICSD