
#(C) 2019 by FIZ Karlsruhe - Leibniz Institute for Information Infrastructure.  All rights reserved.
data_243778-ICSD
_database_code_ICSD 243778
_audit_creation_date 2017-08-01
_chemical_name_systematic 'Distrontium yttrium ruthenium(V) hexaoxide'
_chemical_formula_structural 'Sr2 Y Ru O6'
_chemical_formula_sum 'O6 Ru1 Sr2 Y1'
_chemical_name_structure_type Perovskite-Ba2LaRuO6
_exptl_crystal_density_diffrn 5.65
_cell_measurement_temperature 5.
_publ_section_title

;
The impact of chemical doping on the magnetic state of the Sr2YRuO6 double
perovskite
;
loop_
_citation_id
_citation_journal_full
_citation_year
_citation_journal_volume
_citation_page_first
_citation_page_last
_citation_journal_id_ASTM
primary 'Journal of Solid State Chemistry' 2017 249 154 159 JSSCBI
loop_
_publ_author_name
'Kayser, Paula'
'Ranjbar, Ben'
'Kennedy, Brendan J.'
'Avdeev, Maxim'
_cell_length_a 5.75664(9)
_cell_length_b 5.7812(1)
_cell_length_c 8.1489(1)
_cell_angle_alpha 90
_cell_angle_beta 90.2898(5)
_cell_angle_gamma 90
_cell_volume 271.19
_cell_formula_units_Z 2
_symmetry_space_group_name_H-M 'P 1 21/n 1'
_symmetry_Int_Tables_number 14
_refine_ls_R_factor_all 0.0125
loop_
_symmetry_equiv_pos_site_id
_symmetry_equiv_pos_as_xyz
1 '-x+1/2, y+1/2, -z+1/2'
2 '-x, -y, -z'
3 'x+1/2, -y+1/2, z+1/2'
4 'x, y, z'
loop_
_atom_type_symbol
_atom_type_oxidation_number
Sr2+ 2
Y3+ 3
Ru5+ 5
O2- -2
loop_
_atom_site_label
_atom_site_type_symbol
_atom_site_symmetry_multiplicity
_atom_site_Wyckoff_symbol
_atom_site_fract_x
_atom_site_fract_y
_atom_site_fract_z
_atom_site_B_iso_or_equiv
_atom_site_occupancy
_atom_site_attached_hydrogens
Sr1 Sr2+ 4 e 0.4937(5) 0.03120(2) 0.2512(4) 0.23(2) 1. 0
Y1 Y3+ 2 d 0.5 0 0 0.20(4) 1. 0
Ru1 Ru5+ 2 c 0.5 0 0.5 0.23(2) 1. 0
O1 O2- 4 e 0.5706(4) 0.4843(4) 0.2668(3) 0.32(6) 1. 0
O2 O2- 4 e 0.1961(5) 0.2687(4) 0.0362(4) 0.30(6) 1. 0
O3 O2- 4 e 0.7323(3) 0.1987(4) 0.9641(5) 0.27(8) 1. 0
#End of TTdata_243778-ICSD