
#(C) 2019 by FIZ Karlsruhe - Leibniz Institute for Information Infrastructure.  All rights reserved.
data_246686-ICSD
_database_code_ICSD 246686
_audit_creation_date 2010-02-01
_chemical_name_systematic 'Distrontium cuprate(II)'
_chemical_formula_structural 'Sr2 (Cu O3)'
_chemical_formula_sum 'Cu1 O3 Sr2'
_chemical_name_structure_type Ce2CrN3
_exptl_crystal_density_diffrn 5.5
_cell_measurement_temperature 11.
_publ_section_title

;
Magnetic susceptibility anf low-temperature structure of the linear chain
cuprate Sr2 Cu O3
;
loop_
_citation_id
_citation_journal_full
_citation_year
_citation_journal_volume
_citation_page_first
_citation_page_last
_citation_journal_id_ASTM
primary 'Physical Review B: Condensed Matter and Materials Physics' 1995 51 5994
6001 PRBMDO
loop_
_publ_author_name
'Ami, T.'
'Crawford, M.K.'
'Harlow, R.L.'
'Wang, Z.R.'
'Johnston, D.C.'
'Huang, Q.'
'Erwin, R.W.'
_cell_length_a 3.9089(2)
_cell_length_b 3.4940(2)
_cell_length_c 12.6910(7)
_cell_angle_alpha 90.
_cell_angle_beta 90.
_cell_angle_gamma 90.
_cell_volume 173.33
_cell_formula_units_Z 2
_symmetry_space_group_name_H-M 'I m m m'
_symmetry_Int_Tables_number 71
_refine_ls_R_factor_all 0.0204
loop_
_symmetry_equiv_pos_site_id
_symmetry_equiv_pos_as_xyz
1 'x, y, -z'
2 'x, -y, z'
3 '-x, y, z'
4 '-x, -y, -z'
5 '-x, -y, z'
6 '-x, y, -z'
7 'x, -y, -z'
8 'x, y, z'
9 'x+1/2, y+1/2, -z+1/2'
10 'x+1/2, -y+1/2, z+1/2'
11 '-x+1/2, y+1/2, z+1/2'
12 '-x+1/2, -y+1/2, -z+1/2'
13 '-x+1/2, -y+1/2, z+1/2'
14 '-x+1/2, y+1/2, -z+1/2'
15 'x+1/2, -y+1/2, -z+1/2'
16 'x+1/2, y+1/2, z+1/2'
loop_
_atom_type_symbol
_atom_type_oxidation_number
Sr2+ 2
Cu2+ 2
O2- -2
loop_
_atom_site_label
_atom_site_type_symbol
_atom_site_symmetry_multiplicity
_atom_site_Wyckoff_symbol
_atom_site_fract_x
_atom_site_fract_y
_atom_site_fract_z
_atom_site_B_iso_or_equiv
_atom_site_occupancy
_atom_site_attached_hydrogens
Sr1 Sr2+ 4 i 0 0 0.35195(9) 0.006(4) 1. 0
Cu1 Cu2+ 2 a 0 0 0 0.001(5) 1. 0
O1 O2- 4 i 0 0 0.15445(11) 0.0027(5) 1. 0
O2 O2- 2 b 0.5 0 0 0.0021(8) 1. 0
#End of TTdata_246686-ICSD
