
#(C) 2019 by FIZ Karlsruhe - Leibniz Institute for Information Infrastructure.  All rights reserved.
data_247864-ICSD
_database_code_ICSD 247864
_audit_creation_date 2014-08-01
_chemical_name_systematic 'Cerium palladium indide (2/1/8)'
_chemical_formula_structural 'Ce2 Pd In8'
_chemical_formula_sum 'Ce2 In8 Pd1'
_chemical_name_structure_type CoGa8Ho2
_exptl_crystal_density_diffrn 8.09
_publ_section_title

;
Ce2PdIn8, Ce3PdIn11 and Ce5Pd2In19. Members of homological series based on
AuCu3- and PtHg2-type structural units
;
loop_
_citation_id
_citation_journal_full
_citation_year
_citation_journal_volume
_citation_page_first
_citation_page_last
_citation_journal_id_ASTM
primary 'Journal of Solid State Chemistry' 2013 200 7 12 JSSCBI
loop_
_publ_author_name
'Tursina, A.'
'Nesterenko, S.'
'Seropegin, Y.'
'Noel, H.'
'Kaczorowski, D.'
_cell_length_a 4.6900(9)
_cell_length_b 4.6900(9)
_cell_length_c 12.185(6)
_cell_angle_alpha 90.
_cell_angle_beta 90.
_cell_angle_gamma 90.
_cell_volume 268.02
_cell_formula_units_Z 1
_symmetry_space_group_name_H-M 'P 4/m m m'
_symmetry_Int_Tables_number 123
_refine_ls_R_factor_all 0.0297
loop_
_symmetry_equiv_pos_site_id
_symmetry_equiv_pos_as_xyz
1 'y, x, -z'
2 '-y, -x, -z'
3 '-y, x, -z'
4 'y, -x, -z'
5 '-x, y, -z'
6 'x, -y, -z'
7 'x, y, -z'
8 '-x, -y, -z'
9 '-y, -x, z'
10 'y, x, z'
11 'y, -x, z'
12 '-y, x, z'
13 'x, -y, z'
14 '-x, y, z'
15 '-x, -y, z'
16 'x, y, z'
loop_
_atom_type_symbol
_atom_type_oxidation_number
Ce0+ 0
Pd0+ 0
In0+ 0
loop_
_atom_site_label
_atom_site_type_symbol
_atom_site_symmetry_multiplicity
_atom_site_Wyckoff_symbol
_atom_site_fract_x
_atom_site_fract_y
_atom_site_fract_z
_atom_site_B_iso_or_equiv
_atom_site_occupancy
_atom_site_attached_hydrogens
Ce1 Ce0+ 2 g 0 0 0.30894(7) 0.0065(3) 1. 0
Pd1 Pd0+ 1 a 0 0 0 0.0082(4) 1. 0
In1 In0+ 4 i 0 0.5 0.12215(7) 0.0109(3) 1. 0
In2 In0+ 2 h 0.5 0.5 0.30634(10) 0.0121(3) 1. 0
In3 In0+ 2 e 0 0.5 0.5 0.0135(3) 1. 0
#End of TTdata_247864-ICSD