
#(C) 2019 by FIZ Karlsruhe - Leibniz Institute for Information Infrastructure.  All rights reserved.
data_251038-ICSD
_database_code_ICSD 251038
_audit_creation_date 2015-02-01
_chemical_name_systematic 'Magnesium silicide aluminide (4/3/1)'
_chemical_formula_structural 'Mg4 Si3 Al'
_chemical_formula_sum 'Al1 Mg4 Si3'
_exptl_crystal_density_diffrn 2.27
_cell_measurement_temperature 293.
_publ_section_title

;
Structural characterization of magnesium-based compounds Mg9Si5 and Mg4Si3Al
(superconductor) synthesized under high pressure and high temperature
conditions
;
loop_
_citation_id
_citation_journal_full
_citation_year
_citation_journal_volume
_citation_page_first
_citation_page_last
_citation_journal_id_ASTM
primary 'Inorganic Chemistry' 2013 52 3953 3961 INOCAJ
loop_
_publ_author_name
'Ji, Shidong'
'Imai, Motoharu'
'Zhu, Haikui'
'Yamanaka, Shoji'
_cell_length_a 6.7225(5)
_cell_length_b 6.7225(5)
_cell_length_c 13.5150(9)
_cell_angle_alpha 90
_cell_angle_beta 90
_cell_angle_gamma 90
_cell_volume 610.77
_cell_formula_units_Z 4
_symmetry_space_group_name_H-M 'P 4/n c c Z'
_symmetry_Int_Tables_number 130
_refine_ls_R_factor_all 0.031
loop_
_symmetry_equiv_pos_site_id
_symmetry_equiv_pos_as_xyz
1 'y+1/2, x+1/2, -z+1/2'
2 '-y, x+1/2, -z'
3 'y+1/2, -x, -z'
4 '-y, -x, -z+1/2'
5 'x+1/2, y+1/2, -z'
6 '-x, y+1/2, -z+1/2'
7 'x+1/2, -y, -z+1/2'
8 '-x, -y, -z'
9 '-y+1/2, -x+1/2, z+1/2'
10 'y, -x+1/2, z'
11 '-y+1/2, x, z'
12 'y, x, z+1/2'
13 '-x+1/2, -y+1/2, z'
14 'x, -y+1/2, z+1/2'
15 '-x+1/2, y, z+1/2'
16 'x, y, z'
loop_
_atom_type_symbol
_atom_type_oxidation_number
Si0+ 0
Al0+ 0
Mg0+ 0
loop_
_atom_site_label
_atom_site_type_symbol
_atom_site_symmetry_multiplicity
_atom_site_Wyckoff_symbol
_atom_site_fract_x
_atom_site_fract_y
_atom_site_fract_z
_atom_site_B_iso_or_equiv
_atom_site_occupancy
_atom_site_attached_hydrogens
Si1 Si0+ 4 c 0.25 0.25 0.48882(11) 0.0125(4) 1 0
Si2 Si0+ 8 f 0.12221(12) -0.12221(12) 0.25 0.0145(3) 1 0
Al1 Al0+ 4 c 0.25 0.25 0.28113(16) 0.0247(5) 1 0
Mg1 Mg0+ 16 g -0.09523(15) 0.06945(15) 0.40274(7) 0.0160(3) 1 0
loop_
_atom_site_aniso_label
_atom_site_aniso_type_symbol
_atom_site_aniso_U_11
_atom_site_aniso_U_22
_atom_site_aniso_U_33
_atom_site_aniso_U_12
_atom_site_aniso_U_13
_atom_site_aniso_U_23
Si1 Si0+ 0.0117(5) 0.0117(5) 0.0142(7) 0 0 0
Si2 Si0+ 0.0161(4) 0.0161(4) 0.0114(5) 0.0010(4) 0.0002(3) 0.0002(3)
Al1 Al0+ 0.0163(6) 0.0163(6) 0.0415(12) 0 0 0
Mg1 Mg0+ 0.0154(5) 0.0171(5) 0.0155(5) 0.0019(4) -0.0003(4) 0.0010(4)
#End of TTdata_251038-ICSD