
#(C) 2019 by FIZ Karlsruhe - Leibniz Institute for Information Infrastructure.  All rights reserved.
data_252019-ICSD
_database_code_ICSD 252019
_audit_creation_date 2016-02-01
_chemical_name_systematic 'Lithium iridium silicide (2/1/3)'
_chemical_formula_structural 'Li2 Ir Si3'
_chemical_formula_sum 'Ir1 Li2 Si3'
_exptl_crystal_density_diffrn 5.67
_cell_measurement_temperature 300.
_publ_section_title
'Superconductivity in noncentrosymmetric iridium silicide Li2IrSi3'
loop_
_citation_id
_citation_journal_full
_citation_year
_citation_journal_volume
_citation_page_first
_citation_page_last
_citation_journal_id_ASTM
primary 'Journal of the Physical Society of Japan' 2014 83 093706-1 093706-5
JUPSAU
loop_
_publ_author_name
'Pyon, Sunseng'
'Kudo, Kazutaka'
'Matsumura, Jun-ichi'
'Ishii, Hiroyuki'
'Matsuo, Genta'
'Nohara, Minoru'
'Hojo, Hajime'
'Oka, Kengo'
'Azuma, Masaki'
'Garlea, V.Ovidiu'
'Kodama, Katsuaki'
'Shamoto, Shin-ichi'
_cell_length_a 5.0139(2)
_cell_length_b 5.0139(2)
_cell_length_c 7.8397(3)
_cell_angle_alpha 90.
_cell_angle_beta 90.
_cell_angle_gamma 120.
_cell_volume 170.68
_cell_formula_units_Z 2
_symmetry_space_group_name_H-M 'P 3 1 c'
_symmetry_Int_Tables_number 159
_refine_ls_R_factor_all 0.0378
loop_
_symmetry_equiv_pos_site_id
_symmetry_equiv_pos_as_xyz
1 '-x, -x+y, z+1/2'
2 'x-y, -y, z+1/2'
3 'y, x, z+1/2'
4 '-x+y, -x, z'
5 '-y, x-y, z'
6 'x, y, z'
loop_
_atom_type_symbol
_atom_type_oxidation_number
Ir0+ 0
Li0+ 0
Si0+ 0
loop_
_atom_site_label
_atom_site_type_symbol
_atom_site_symmetry_multiplicity
_atom_site_Wyckoff_symbol
_atom_site_fract_x
_atom_site_fract_y
_atom_site_fract_z
_atom_site_B_iso_or_equiv
_atom_site_occupancy
_atom_site_attached_hydrogens
Ir1 Ir0+ 2 a 0 0 0 0.70(4) 1. 0
Li1 Li0+ 2 b 0.3333 0.6667 0.0589(10) 0.35(24) 1. 0
Li2 Li0+ 2 b 0.6667 0.3333 -0.0589(10) 0.35(24) 1. 0
Si1 Si0+ 6 c 0.81424 0.65238 0.24317 0.40(5) 1. 0
#End of TTdata_252019-ICSD