
#(C) 2019 by FIZ Karlsruhe - Leibniz Institute for Information Infrastructure.  All rights reserved.
data_253703-ICSD
_database_code_ICSD 253703
_audit_creation_date 2018-02-01
_chemical_name_systematic 'Copper bismuth (1/1) - HP'
_chemical_formula_structural 'Cu Bi'
_chemical_formula_sum 'Bi1 Cu1'
_exptl_crystal_density_diffrn 10.4
_publ_section_title
'Weak interactions under pressure: hp-CuBi and its analogues'
loop_
_citation_id
_citation_journal_full
_citation_year
_citation_journal_volume
_citation_page_first
_citation_page_last
_citation_journal_id_ASTM
primary 'Angewandte Chemie, International Edition' 2017 56 5620 5624 ACIEF5
loop_
_publ_author_name
'Guo, Kai'
'Akselrud, Lev'
'Bobnar, Matej'
'Burkhardt, Ulrich'
'Schmidt, Marcus'
'Zhao, Jing-Tai'
'Schwarz, Ulrich'
'Grin, Yuri'
_cell_length_a 5.20751(7)
_cell_length_b 4.24215(6)
_cell_length_c 7.8769(1)
_cell_angle_alpha 90.
_cell_angle_beta 90.
_cell_angle_gamma 90.
_cell_volume 174.01
_cell_formula_units_Z 4
_symmetry_space_group_name_H-M 'P m m a'
_symmetry_Int_Tables_number 51
_refine_ls_R_factor_all 0.033
loop_
_symmetry_equiv_pos_site_id
_symmetry_equiv_pos_as_xyz
1 '-x+1/2, -y, z'
2 'x+1/2, -y, -z'
3 'x, -y, z'
4 '-x, -y, -z'
5 'x+1/2, y, -z'
6 '-x+1/2, y, z'
7 '-x, y, -z'
8 'x, y, z'
loop_
_atom_type_symbol
_atom_type_oxidation_number
Cu0+ 0
Bi0+ 0
loop_
_atom_site_label
_atom_site_type_symbol
_atom_site_symmetry_multiplicity
_atom_site_Wyckoff_symbol
_atom_site_fract_x
_atom_site_fract_y
_atom_site_fract_z
_atom_site_B_iso_or_equiv
_atom_site_occupancy
_atom_site_attached_hydrogens
Cu1 Cu0+ 2 f 0.25 0.5 0.919(3) 0.0057(2) 1. 0
Cu2 Cu0+ 2 a 0 0 0 0.0070(2) 1. 0
Bi1 Bi0+ 2 f 0.25 0.5 0.2602(9) 0.012(3) 1. 0
Bi2 Bi0+ 2 e 0.25 0 0.6816(7) 0.011(3) 1. 0
#End of TTdata_253703-ICSD