
#(C) 2019 by FIZ Karlsruhe - Leibniz Institute for Information Infrastructure.  All rights reserved.
data_260033-ICSD
_database_code_ICSD 260033
_audit_creation_date 2009-02-01
_chemical_name_systematic 'Lanthanum palladium silicide (3/5/1) - beta'
_chemical_formula_structural 'La3 Pd5 Si'
_chemical_formula_sum 'La3 Pd5 Si1'
_chemical_name_structure_type Ce3Pd5Si
_exptl_crystal_density_diffrn 8.37
_cell_measurement_temperature 298.
_publ_section_title

;
Hydrogen absorption in transition metal silicides: La3 Pd5 Si - hydrogen
system
;
loop_
_citation_id
_citation_journal_full
_citation_year
_citation_journal_volume
_citation_page_first
_citation_page_last
_citation_journal_id_ASTM
primary 'Inorganic Chemistry' 2008 47 6303 6313 INOCAJ
loop_
_publ_author_name
'Tokaychuk, Y.O.'
'Filinchuk, Y.E.'
'Sheptyakov, D.V.'
'Yvon, K.'
_cell_length_a 13.3342(11)
_cell_length_b 7.5479(5)
_cell_length_c 7.6995(7)
_cell_angle_alpha 90.
_cell_angle_beta 90.
_cell_angle_gamma 90.
_cell_volume 774.92
_cell_formula_units_Z 4
_symmetry_space_group_name_H-M 'I m m a'
_symmetry_Int_Tables_number 74
_refine_ls_R_factor_all 0.022
loop_
_symmetry_equiv_pos_site_id
_symmetry_equiv_pos_as_xyz
1 '-x, y+1/2, -z'
2 '-x, -y+1/2, z'
3 '-x, y, z'
4 '-x, -y, -z'
5 'x, -y+1/2, z'
6 'x, y+1/2, -z'
7 'x, -y, -z'
8 'x, y, z'
9 '-x+1/2, y, -z+1/2'
10 '-x+1/2, -y, z+1/2'
11 '-x+1/2, y+1/2, z+1/2'
12 '-x+1/2, -y+1/2, -z+1/2'
13 'x+1/2, -y, z+1/2'
14 'x+1/2, y, -z+1/2'
15 'x+1/2, -y+1/2, -z+1/2'
16 'x+1/2, y+1/2, z+1/2'
loop_
_atom_type_symbol
_atom_type_oxidation_number
La0+ 0
Pd0+ 0
Si0+ 0
loop_
_atom_site_label
_atom_site_type_symbol
_atom_site_symmetry_multiplicity
_atom_site_Wyckoff_symbol
_atom_site_fract_x
_atom_site_fract_y
_atom_site_fract_z
_atom_site_B_iso_or_equiv
_atom_site_occupancy
_atom_site_attached_hydrogens
La1 La0+ 4 e 0 0.25 0.4118(3) 0.24(5) 1. 0
La2 La0+ 8 i 0.20457(11) 0.25 0.02069(19) 0.01(5) 1. 0
Pd1 Pd0+ 4 a 0 0 0 1.60(8) 1. 0
Pd2 Pd0+ 16 j 0.13383(14) 0.05832(17) 0.70860(17) 0.82(5) 1. 0
Si1 Si0+ 4 e 0 0.25 0.8187(12) 0.9(3) 1. 0
#End of TTdata_260033-ICSD