
#(C) 2019 by FIZ Karlsruhe - Leibniz Institute for Information Infrastructure.  All rights reserved.
data_262509-ICSD
_database_code_ICSD 262509
_audit_creation_date 2012-08-01
_chemical_name_systematic 'Calcium nickel boron nitride'
_chemical_formula_structural 'Ca Ni B N'
_chemical_formula_sum 'B1 Ca1 N1 Ni1'
_chemical_name_structure_type BaNiS2
_exptl_crystal_density_diffrn 4.29
_publ_section_title

;
Superconductivity in La T M B N and La3 T M2 B2 N3 (TM = transition metal)
synthesized under high pressure
;
loop_
_citation_id
_citation_journal_full
_citation_year
_citation_journal_volume
_citation_page_first
_citation_page_last
_citation_journal_id_ASTM
primary 'Journal of the American Chemical Society' 2012 134 2516 2519 JACSAT
loop_
_publ_author_name
'Imamura, N.'
'Mizoguchi, H.'
'Hosono, H.'
_cell_length_a 3.54
_cell_length_b 3.54
_cell_length_c 7.6377
_cell_angle_alpha 90.
_cell_angle_beta 90.
_cell_angle_gamma 90.
_cell_volume 95.71
_cell_formula_units_Z 2
_symmetry_space_group_name_H-M 'P 4/n m m S'
_symmetry_Int_Tables_number 129
loop_
_symmetry_equiv_pos_site_id
_symmetry_equiv_pos_as_xyz
1 '-y+1/2, -x+1/2, z'
2 'y+1/2, x+1/2, z'
3 '-y, -x, -z'
4 'y, x, -z'
5 'y+1/2, -x+1/2, z'
6 '-y+1/2, x+1/2, z'
7 'y, -x, -z'
8 '-y, x, -z'
9 'x+1/2, -y+1/2, -z'
10 '-x+1/2, y+1/2, -z'
11 'x, -y, z'
12 '-x, y, z'
13 '-x+1/2, -y+1/2, -z'
14 'x+1/2, y+1/2, -z'
15 '-x, -y, z'
16 'x, y, z'
loop_
_atom_type_symbol
_atom_type_oxidation_number
Ca0+ 0
Ni0+ 0
N0+ 0
B0+ 0
loop_
_atom_site_label
_atom_site_type_symbol
_atom_site_symmetry_multiplicity
_atom_site_Wyckoff_symbol
_atom_site_fract_x
_atom_site_fract_y
_atom_site_fract_z
_atom_site_B_iso_or_equiv
_atom_site_occupancy
_atom_site_attached_hydrogens
Ca1 Ca0+ 2 c 0. 0.5 0.3417 . 1. 0
Ni1 Ni0+ 2 a 0.5 0.5 0. . 1. 0
N1 N0+ 2 c 0. 0.5 0.66335 . 1. 0
B1 B0+ 2 c 0. 0.5 0.84529 . 1. 0
#End of TTdata_262509-ICSD