
#(C) 2019 by FIZ Karlsruhe - Leibniz Institute for Information Infrastructure.  All rights reserved.
data_26570-ICSD
_database_code_ICSD 26570
_audit_creation_date 1980-01-01
_audit_update_record 2018-08-01
_chemical_name_systematic 'Thorium silicide'
_chemical_formula_structural 'Th Si'
_chemical_formula_sum 'Si1 Th1'
_chemical_name_structure_type FeB
_exptl_crystal_density_diffrn 8.97
_publ_section_title
'Preparation, identification and chemical properties of the thorium silicides'
loop_
_citation_id
_citation_journal_full
_citation_year
_citation_journal_volume
_citation_page_first
_citation_page_last
_citation_journal_id_ASTM
primary 'Journal of the American Chemical Society' 1956 78 4850 4852 JACSAT
loop_
_publ_author_name
'Jacobson, E.L.'
'Freeman, Robert D.'
'Tharp, A.G.'
'Searcy, Alan W.'
_cell_length_a 5.89
_cell_length_b 7.88
_cell_length_c 4.15
_cell_angle_alpha 90.
_cell_angle_beta 90.
_cell_angle_gamma 90.
_cell_volume 192.61
_cell_formula_units_Z 4
_symmetry_space_group_name_H-M 'P b n m'
_symmetry_Int_Tables_number 62
loop_
_symmetry_equiv_pos_site_id
_symmetry_equiv_pos_as_xyz
1 '-x+1/2, y+1/2, z'
2 'x, y, -z+1/2'
3 'x+1/2, -y+1/2, z+1/2'
4 '-x, -y, -z'
5 'x+1/2, -y+1/2, -z'
6 '-x, -y, z+1/2'
7 '-x+1/2, y+1/2, -z+1/2'
8 'x, y, z'
loop_
_atom_type_symbol
_atom_type_oxidation_number
Th0+ 0
Si0+ 0
loop_
_atom_site_label
_atom_site_type_symbol
_atom_site_symmetry_multiplicity
_atom_site_Wyckoff_symbol
_atom_site_fract_x
_atom_site_fract_y
_atom_site_fract_z
_atom_site_B_iso_or_equiv
_atom_site_occupancy
_atom_site_attached_hydrogens
Th1 Th0+ 4 c 0.13 0.18 0.25 . 1. 0
Si1 Si0+ 4 c 0.61 0.03 0.25 . 1. 0
#End of TTdata_26570-ICSD
