
#(C) 2019 by FIZ Karlsruhe - Leibniz Institute for Information Infrastructure.  All rights reserved.
data_26597-ICSD
_database_code_ICSD 26597
_audit_creation_date 1986-09-24
_audit_update_record 1999-01-19
_chemical_name_systematic 'Tin oxide'
_chemical_formula_structural 'Sn O'
_chemical_formula_sum 'O1 Sn1'
_chemical_name_structure_type Litharge
_chemical_name_mineral Romarchite
_exptl_crystal_density_diffrn 6.45
_publ_section_title

;
The crystal structures of the tetragonal monoxides of lead, tin, palladium,
and platinum
;
loop_
_citation_id
_citation_journal_full
_citation_year
_citation_journal_volume
_citation_page_first
_citation_page_last
_citation_journal_id_ASTM
primary 'Journal of the American Chemical Society' 1941 63 1392 1394 JACSAT
loop_
_publ_author_name
'Moore, W.J.'
'Pauling, L.'
_cell_length_a 3.796(6)
_cell_length_b 3.796(6)
_cell_length_c 4.816(8)
_cell_angle_alpha 90.
_cell_angle_beta 90.
_cell_angle_gamma 90.
_cell_volume 69.4
_cell_formula_units_Z 2
_symmetry_space_group_name_H-M 'P 4/n m m S'
_symmetry_Int_Tables_number 129
loop_
_symmetry_equiv_pos_site_id
_symmetry_equiv_pos_as_xyz
1 '-y+1/2, -x+1/2, z'
2 'y+1/2, x+1/2, z'
3 '-y, -x, -z'
4 'y, x, -z'
5 'y+1/2, -x+1/2, z'
6 '-y+1/2, x+1/2, z'
7 'y, -x, -z'
8 '-y, x, -z'
9 'x+1/2, -y+1/2, -z'
10 '-x+1/2, y+1/2, -z'
11 'x, -y, z'
12 '-x, y, z'
13 '-x+1/2, -y+1/2, -z'
14 'x+1/2, y+1/2, -z'
15 '-x, -y, z'
16 'x, y, z'
loop_
_atom_type_symbol
_atom_type_oxidation_number
O2- -2
Sn2+ 2
loop_
_atom_site_label
_atom_site_type_symbol
_atom_site_symmetry_multiplicity
_atom_site_Wyckoff_symbol
_atom_site_fract_x
_atom_site_fract_y
_atom_site_fract_z
_atom_site_B_iso_or_equiv
_atom_site_occupancy
_atom_site_attached_hydrogens
O1 O2- 2 a 0 0 0 . 1. 0
Sn1 Sn2+ 2 c 0.5 0 0.2356(19) . 1. 0
#End of TTdata_26597-ICSD
