
#(C) 2019 by FIZ Karlsruhe - Leibniz Institute for Information Infrastructure.  All rights reserved.
data_290035-ICSD
_database_code_ICSD 290035
_audit_creation_date 2013-08-01
_chemical_name_systematic 'Titanium nitride chloride - alpha'
_chemical_formula_structural 'Ti N Cl'
_chemical_formula_sum 'Cl1 N1 Ti1'
_chemical_name_structure_type FeOCl
_exptl_crystal_density_diffrn 3.48
_publ_section_title

;
Structural and electronic properties of alpha-Ti N X (X: F, Cl, Br, I). An ab
initio study
;
loop_
_citation_id
_citation_journal_full
_citation_year
_citation_journal_volume
_citation_page_first
_citation_page_last
_citation_journal_id_ASTM
primary 'Journal of Theoretical & Computational Chemistry' 2011 10 65 74 JTCCAC
loop_
_publ_author_name
'Altintas, Bahadir'
_cell_length_a 3.887
_cell_length_b 3.17
_cell_length_c 7.551
_cell_angle_alpha 90.
_cell_angle_beta 90.
_cell_angle_gamma 90.
_cell_volume 93.04
_cell_formula_units_Z 2
_symmetry_space_group_name_H-M 'P m m n S'
_symmetry_Int_Tables_number 59
loop_
_symmetry_equiv_pos_site_id
_symmetry_equiv_pos_as_xyz
1 'x+1/2, -y+1/2, -z'
2 'x+1/2, y+1/2, -z'
3 'x, -y, z'
4 '-x, y, z'
5 '-x+1/2, y+1/2, -z'
6 '-x+1/2, -y+1/2, -z'
7 '-x, -y, z'
8 'x, y, z'
loop_
_atom_type_symbol
_atom_type_oxidation_number
Ti4+ 4
N3- -3
Cl1- -1
loop_
_atom_site_label
_atom_site_type_symbol
_atom_site_symmetry_multiplicity
_atom_site_Wyckoff_symbol
_atom_site_fract_x
_atom_site_fract_y
_atom_site_fract_z
_atom_site_B_iso_or_equiv
_atom_site_occupancy
_atom_site_attached_hydrogens
Ti1 Ti4+ 2 b 0 0.5 0.09815 . 1. 0
N1 N3- 2 a 0.5 0.5 0.05378 . 1. 0
Cl1 Cl1- 2 a 0 0 0.33569 . 1. 0
#End of TTdata_290035-ICSD
