
#(C) 2019 by FIZ Karlsruhe - Leibniz Institute for Information Infrastructure.  All rights reserved.
data_290595-ICSD
_database_code_ICSD 290595
_audit_creation_date 2014-02-01
_chemical_name_systematic 'Barium diiron triselenide'
_chemical_formula_structural 'Ba Fe2 Se3'
_chemical_formula_sum 'Ba1 Fe2 Se3'
_chemical_name_structure_type BaFe2Se3
_exptl_crystal_density_diffrn 5.31
_cell_measurement_temperature 480.
_publ_section_title

;
Crystal structure of Ba Fe2 Se3 as a function of temperature and pressure:
phase transition phenomena and high-order expansion of Landau potential
;
loop_
_citation_id
_citation_journal_full
_citation_year
_citation_journal_volume
_citation_page_first
_citation_page_last
_citation_journal_id_ASTM
primary 'Journal of Physics: Condensed Matter' 2013 25 315403-1 315403-11 JCOMEL
loop_
_publ_author_name
'Svitlyk, V.'
'Chernyshov, D.'
'Pomjakushina, E.'
'Krzton-Maziopa, A.'
'Conder, K.'
'Pomjakushin, V.'
'Poettgen, R.'
'Dmitriev, V.'
_cell_length_a 11.9700(3)
_cell_length_b 5.4976(2)
_cell_length_c 9.2435(2)
_cell_angle_alpha 90.
_cell_angle_beta 90.
_cell_angle_gamma 90.
_cell_volume 608.28
_cell_formula_units_Z 4
_symmetry_space_group_name_H-M 'P n m a'
_symmetry_Int_Tables_number 62
_refine_ls_R_factor_all 0.0366
loop_
_symmetry_equiv_pos_site_id
_symmetry_equiv_pos_as_xyz
1 'x+1/2, y, -z+1/2'
2 'x, -y+1/2, z'
3 '-x+1/2, y+1/2, z+1/2'
4 '-x, -y, -z'
5 '-x+1/2, -y, z+1/2'
6 '-x, y+1/2, -z'
7 'x+1/2, -y+1/2, -z+1/2'
8 'x, y, z'
loop_
_atom_type_symbol
_atom_type_oxidation_number
Ba2+ 2
Se2- -2
Fe2+ 2
loop_
_atom_site_label
_atom_site_type_symbol
_atom_site_symmetry_multiplicity
_atom_site_Wyckoff_symbol
_atom_site_fract_x
_atom_site_fract_y
_atom_site_fract_z
_atom_site_B_iso_or_equiv
_atom_site_occupancy
_atom_site_attached_hydrogens
Ba1 Ba2+ 4 c 0.1838(1) 0.25 0.5147(1) 0.037(1) 1. 0
Se1 Se2- 4 c 0.3945(2) 0.25 0.8099(2) 0.034(1) 1. 0
Se2 Se2- 4 c 0.3658(2) 0.25 0.2243(2) 0.031(1) 1. 0
Se3 Se2- 4 c 0.6258(1) 0.25 0.4930(1) 0.020(1) 1. 0
Fe1 Fe2+ 8 d 0.4855(1) 0.9996(2) 0.3506(2) 0.018(1) 1. 0
#End of TTdata_290595-ICSD
