
#(C) 2019 by FIZ Karlsruhe - Leibniz Institute for Information Infrastructure.  All rights reserved.
data_391427-ICSD
_database_code_ICSD 391427
_audit_creation_date 2009-02-01
_audit_update_record 2011-02-01
_chemical_name_systematic 'Lanthanum nickel phosphide oxide'
_chemical_formula_structural 'La Ni P O'
_chemical_formula_sum 'La1 Ni1 O1 P1'
_chemical_name_structure_type ZrCuSiAs-CuHfSi2
_exptl_crystal_density_diffrn 6.12
_cell_measurement_temperature 293.
_publ_section_title
'Synthesis, crystal structure and superconductivity of La Ni P O'
loop_
_citation_id
_citation_journal_full
_citation_year
_citation_journal_volume
_citation_page_first
_citation_page_last
_citation_journal_id_ASTM
primary 'Solid State Sciences' 2008 10 193 197 SSSCFJ
loop_
_publ_author_name
'Tegel, M.'
'Bichler, D.'
'Johrendt, D.'
_cell_length_a 4.04530(10)
_cell_length_b 4.04530(10)
_cell_length_c 8.1054(3)
_cell_angle_alpha 90.
_cell_angle_beta 90.
_cell_angle_gamma 90.
_cell_volume 132.64
_cell_formula_units_Z 2
_symmetry_space_group_name_H-M 'P 4/n m m Z'
_symmetry_Int_Tables_number 129
_refine_ls_R_factor_all 0.0269
loop_
_symmetry_equiv_pos_site_id
_symmetry_equiv_pos_as_xyz
1 'y+1/2, x+1/2, -z'
2 '-y, x+1/2, -z'
3 'y+1/2, -x, -z'
4 '-y, -x, -z'
5 'x+1/2, y+1/2, -z'
6 '-x, y+1/2, -z'
7 'x+1/2, -y, -z'
8 '-x, -y, -z'
9 '-y+1/2, -x+1/2, z'
10 'y, -x+1/2, z'
11 '-y+1/2, x, z'
12 'y, x, z'
13 '-x+1/2, -y+1/2, z'
14 'x, -y+1/2, z'
15 '-x+1/2, y, z'
16 'x, y, z'
loop_
_atom_type_symbol
_atom_type_oxidation_number
La3+ 3
Ni2+ 2
P3- -3
O2- -2
loop_
_atom_site_label
_atom_site_type_symbol
_atom_site_symmetry_multiplicity
_atom_site_Wyckoff_symbol
_atom_site_fract_x
_atom_site_fract_y
_atom_site_fract_z
_atom_site_B_iso_or_equiv
_atom_site_occupancy
_atom_site_attached_hydrogens
La1 La3+ 2 c 0.25 0.25 0.15190(9) 0.0097(4) 1 0
Ni1 Ni2+ 2 b 0.75 0.25 0.5 0.0168(5) 1 0
P1 P3- 2 c 0.25 0.25 0.6257(5) 0.0144(9) 1 0
O1 O2- 2 a 0.75 0.25 0. 0.0101(19) 1 0
loop_
_atom_site_aniso_label
_atom_site_aniso_type_symbol
_atom_site_aniso_U_11
_atom_site_aniso_U_22
_atom_site_aniso_U_33
_atom_site_aniso_U_12
_atom_site_aniso_U_13
_atom_site_aniso_U_23
La1 La3+ 0.0087(4) 0.0087(4) 0.0116(5) 0. 0. 0.
Ni1 Ni2+ 0.0179(7) 0.0179(7) 0.0147(8) 0. 0. 0.
P1 P3- 0.0134(13) 0.0134(13) 0.0164(17) 0. 0. 0.
O1 O2- 0.010(3) 0.010(3) 0.010(4) 0. 0. 0.
#End of TTdata_391427-ICSD
