
#(C) 2019 by FIZ Karlsruhe - Leibniz Institute for Information Infrastructure.  All rights reserved.
data_40162-ICSD
_database_code_ICSD 40162
_audit_creation_date 1999-11-30
_audit_update_record 2006-04-01
_chemical_name_systematic 'Dilead diphosphate(V) - HT'
_chemical_formula_structural 'Pb2 (P2 O7)'
_chemical_formula_sum 'O7 P2 Pb2'
_exptl_crystal_density_diffrn 6.08
_cell_measurement_temperature 1023.
_publ_section_title
'Zur Kenntnis einer Hochtemperaturmodifikation des Bleidiphosphats, Pb2 P2 O7'
loop_
_citation_id
_citation_journal_full
_citation_year
_citation_journal_volume
_citation_page_first
_citation_page_last
_citation_journal_id_ASTM
primary 'Zeitschrift fuer Anorganische und Allgemeine Chemie (1950) (DE)' 1990
584 173 177 ZAACAB
loop_
_publ_author_name
'Brueckner, A.'
'Worzala, H.'
_cell_length_a 12.852(6)
_cell_length_b 7.076(5)
_cell_length_c 7.096(3)
_cell_angle_alpha 90.
_cell_angle_beta 95.4(4)
_cell_angle_gamma 90.
_cell_volume 642.45
_cell_formula_units_Z 4
_symmetry_space_group_name_H-M 'P 1 21/n 1'
_symmetry_Int_Tables_number 14
_refine_ls_R_factor_all 0.069
loop_
_symmetry_equiv_pos_site_id
_symmetry_equiv_pos_as_xyz
1 '-x+1/2, y+1/2, -z+1/2'
2 '-x, -y, -z'
3 'x+1/2, -y+1/2, z+1/2'
4 'x, y, z'
loop_
_atom_type_symbol
_atom_type_oxidation_number
Pb2+ 2
P5+ 5
O2- -2
loop_
_atom_site_label
_atom_site_type_symbol
_atom_site_symmetry_multiplicity
_atom_site_Wyckoff_symbol
_atom_site_fract_x
_atom_site_fract_y
_atom_site_fract_z
_atom_site_B_iso_or_equiv
_atom_site_occupancy
_atom_site_attached_hydrogens
Pb1 Pb2+ 4 e 0.3551 0.7905 0.7529 . 1. 0
Pb2 Pb2+ 4 e 0.3597 0.3783 0.3436 . 1. 0
P1 P5+ 4 e 0.407 0.284 0.849 . 1. 0
P2 P5+ 4 e 0.5955 0.132 0.7453 . 1. 0
#End of TTdata_40162-ICSD
