
#(C) 2019 by FIZ Karlsruhe - Leibniz Institute for Information Infrastructure.  All rights reserved.
data_410838-ICSD
_database_code_ICSD 410838
_audit_creation_date 2005-04-01
_chemical_name_systematic 'Rhodium sulfide(17/15)'
_chemical_formula_structural 'Rh17 S15'
_chemical_formula_sum 'Rh17 S15'
_chemical_name_structure_type Pd17Se15
_exptl_crystal_density_diffrn 7.51
_publ_section_title

;
Ein 'altes' Rhodiumsulfid mit ueberraschender Struktur: Synthese,
Kristallstruktur und elektronische Eigenschaften von Rh3 S4
;
loop_
_citation_id
_citation_journal_full
_citation_year
_citation_journal_volume
_citation_page_first
_citation_page_last
_citation_journal_id_ASTM
primary 'Zeitschrift fuer Anorganische und Allgemeine Chemie (1950) (DE)' 2000
626 72 79 ZAACAB
loop_
_publ_author_name
'Beck, J.'
'Hilbert, T.'
_cell_length_a 9.908(13)
_cell_length_b 9.908(13)
_cell_length_c 9.908(13)
_cell_angle_alpha 90.
_cell_angle_beta 90.
_cell_angle_gamma 90.
_cell_volume 972.65
_cell_formula_units_Z 2
_symmetry_space_group_name_H-M 'P m -3 m'
_symmetry_Int_Tables_number 221
_refine_ls_R_factor_all 0.0175
loop_
_symmetry_equiv_pos_site_id
_symmetry_equiv_pos_as_xyz
1 'z, y, -x'
2 'y, x, -z'
3 'x, z, -y'
4 'z, x, -y'
5 'y, z, -x'
6 'x, y, -z'
7 'z, -y, x'
8 'y, -x, z'
9 'x, -z, y'
10 'z, -x, y'
11 'y, -z, x'
12 'x, -y, z'
13 '-z, y, x'
14 '-y, x, z'
15 '-x, z, y'
16 '-z, x, y'
17 '-y, z, x'
18 '-x, y, z'
19 '-z, -y, -x'
20 '-y, -x, -z'
21 '-x, -z, -y'
22 '-z, -x, -y'
23 '-y, -z, -x'
24 '-x, -y, -z'
25 '-z, -y, x'
26 '-y, -x, z'
27 '-x, -z, y'
28 '-z, -x, y'
29 '-y, -z, x'
30 '-x, -y, z'
31 '-z, y, -x'
32 '-y, x, -z'
33 '-x, z, -y'
34 '-z, x, -y'
35 '-y, z, -x'
36 '-x, y, -z'
37 'z, -y, -x'
38 'y, -x, -z'
39 'x, -z, -y'
40 'z, -x, -y'
41 'y, -z, -x'
42 'x, -y, -z'
43 'z, y, x'
44 'y, x, z'
45 'x, z, y'
46 'z, x, y'
47 'y, z, x'
48 'x, y, z'
loop_
_atom_type_symbol
_atom_type_oxidation_number
Rh1+ 1.765
S2- -2
loop_
_atom_site_label
_atom_site_type_symbol
_atom_site_symmetry_multiplicity
_atom_site_Wyckoff_symbol
_atom_site_fract_x
_atom_site_fract_y
_atom_site_fract_z
_atom_site_B_iso_or_equiv
_atom_site_occupancy
_atom_site_attached_hydrogens
Rh1 Rh1+ 24 m 0.35666(2) 0.35666(2) 0.14328(3) 0.00494(10) 1 0
Rh2 Rh1+ 6 e 0. 0.23821(6) 0. 0.00378(12) 1 0
Rh3 Rh1+ 3 d 0. 0.5 0. 0.0036(2) 1 0
Rh4 Rh1+ 1 b 0.5 0.5 0.5 0.0031(2) 1 0
S1 S2- 12 j 0.16900(8) 0.5 0.16900(8) 0.0047(2) 1 0
S2 S2- 12 i 0.22967(9) 0.22967(9) 0. 0.0045(2) 1 0
S3 S2- 6 f 0.5 0.5 0.2641(2) 0.0048(3) 1 0
loop_
_atom_site_aniso_label
_atom_site_aniso_type_symbol
_atom_site_aniso_U_11
_atom_site_aniso_U_22
_atom_site_aniso_U_33
_atom_site_aniso_U_12
_atom_site_aniso_U_13
_atom_site_aniso_U_23
Rh1 Rh1+ 0.00465(11) 0.00465(11) 0.00553(13) -0.00004(9) -0.00078(6) -0.00078(6)
Rh2 Rh1+ 0.0038(2) 0.0038(2) 0.0038(2) 0. 0. 0.
Rh3 Rh1+ 0.0043(2) 0.0023(3) 0.0043(2) 0. 0. 0.
Rh4 Rh1+ 0.0031(2) 0.0031(2) 0.0031(2) 0. 0. 0.
S1 S2- 0.0046(3) 0.0050(5) 0.0046(3) 0. -0.0003(4) 0.
S2 S2- 0.0042(3) 0.0042(3) 0.0050(5) -0.0007(4) 0. 0.
S3 S2- 0.0054(4) 0.0054(4) 0.0037(7) 0. 0. 0.
#End of TTdata_410838-ICSD
