
#(C) 2019 by FIZ Karlsruhe - Leibniz Institute for Information Infrastructure.  All rights reserved.
data_415594-ICSD
_database_code_ICSD 415594
_audit_creation_date 2006-10-01
_chemical_name_systematic 'Lanthanum rhodium stannide'
_chemical_formula_structural 'La Rh Sn'
_chemical_formula_sum 'La1 Rh1 Sn1'
_chemical_name_structure_type ZrNiAl-Fe2P
_exptl_crystal_density_diffrn 8.72
_publ_section_title

;
Structure, chemical bonding, and 119Sn Moessbauer spectroscopy of La Rh Sn and
Ce Rh Sn
;
loop_
_citation_id
_citation_journal_full
_citation_year
_citation_journal_volume
_citation_page_first
_citation_page_last
_citation_journal_id_ASTM
primary 'Zeitschrift fuer Naturforschung, B: A Journal of Chemical Sciences'
2005 60 1036 1042 ZNBSEN
loop_
_publ_author_name
'Schmidt, T.'
'Johrendt, D.'
'Sebastian, C.P.'
'Poettgen, R.'
'Latka, K.'
'Kmiec, R.'
_cell_length_a 7.4874(5)
_cell_length_b 7.4874(5)
_cell_length_c 4.2216(3)
_cell_angle_alpha 90.
_cell_angle_beta 90.
_cell_angle_gamma 120.
_cell_volume 204.96
_cell_formula_units_Z 3
_symmetry_space_group_name_H-M 'P -6 2 m'
_symmetry_Int_Tables_number 189
_refine_ls_R_factor_all 0.0239
loop_
_symmetry_equiv_pos_site_id
_symmetry_equiv_pos_as_xyz
1 '-x, -x+y, -z'
2 'x-y, -y, -z'
3 'y, x, -z'
4 '-x, -x+y, z'
5 'x-y, -y, z'
6 'y, x, z'
7 '-x+y, -x, -z'
8 '-y, x-y, -z'
9 'x, y, -z'
10 '-x+y, -x, z'
11 '-y, x-y, z'
12 'x, y, z'
loop_
_atom_type_symbol
_atom_type_oxidation_number
La0+ 0
Rh0+ 0
Sn0+ 0
loop_
_atom_site_label
_atom_site_type_symbol
_atom_site_symmetry_multiplicity
_atom_site_Wyckoff_symbol
_atom_site_fract_x
_atom_site_fract_y
_atom_site_fract_z
_atom_site_B_iso_or_equiv
_atom_site_occupancy
_atom_site_attached_hydrogens
La1 La0+ 3 f 0.58377(9) 1. 1. 0.00779(14) 1 0
Rh1 Rh0+ 2 d 0.6667 0.3333 0.5 0.0096(2) 1 0
Rh2 Rh0+ 1 a 1. 1. 1. 0.0068(3) 1 0
Sn1 Sn0+ 3 g 0.24490(9) 1. 0.5 0.00667(16) 1 0
loop_
_atom_site_aniso_label
_atom_site_aniso_type_symbol
_atom_site_aniso_U_11
_atom_site_aniso_U_22
_atom_site_aniso_U_33
_atom_site_aniso_U_12
_atom_site_aniso_U_13
_atom_site_aniso_U_23
La1 La0+ 0.0071(2) 0.0084(3) 0.0083(3) 0.00420(14) 0. 0.
Rh1 Rh0+ 0.0095(3) 0.0095(3) 0.0098(7) 0.00474(14) 0. 0.
Rh2 Rh0+ 0.0083(4) 0.0083(4) 0.0039(8) 0.00414(19) 0. 0.
Sn1 Sn0+ 0.0067(2) 0.0070(3) 0.0064(4) 0.00351(15) 0. 0.
#End of TTdata_415594-ICSD
