
#(C) 2019 by FIZ Karlsruhe - Leibniz Institute for Information Infrastructure.  All rights reserved.
data_416423-ICSD
_database_code_ICSD 416423
_audit_creation_date 2007-08-01
_audit_update_record 2011-02-01
_chemical_name_systematic 'Lanthanum platinum germanide (1/2/2)'
_chemical_formula_structural 'La Pt2 Ge2'
_chemical_formula_sum 'Ge2 La1 Pt2'
_chemical_name_structure_type Be2CaGe2
_exptl_crystal_density_diffrn 11.68
_publ_section_title
'La Pt2 Ge2 und Eu Pt2 Ge2 - Neubestimmung der Kristallstrukturen'
loop_
_citation_id
_citation_journal_full
_citation_year
_citation_journal_volume
_citation_page_first
_citation_page_last
_citation_journal_id_ASTM
primary 'Zeitschrift fuer Anorganische und Allgemeine Chemie (1950) (DE)' 2006
632 2217 2221 ZAACAB
loop_
_publ_author_name
'Imre, A.'
'Hellmann, A.'
'Mewis, A.'
_cell_length_a 4.3830(10)
_cell_length_b 4.3830(10)
_cell_length_c 9.979(4)
_cell_angle_alpha 90.
_cell_angle_beta 90.
_cell_angle_gamma 90.
_cell_volume 191.7
_cell_formula_units_Z 2
_symmetry_space_group_name_H-M 'P 4/n m m Z'
_symmetry_Int_Tables_number 129
_refine_ls_R_factor_all 0.0468
loop_
_symmetry_equiv_pos_site_id
_symmetry_equiv_pos_as_xyz
1 'y+1/2, x+1/2, -z'
2 '-y, x+1/2, -z'
3 'y+1/2, -x, -z'
4 '-y, -x, -z'
5 'x+1/2, y+1/2, -z'
6 '-x, y+1/2, -z'
7 'x+1/2, -y, -z'
8 '-x, -y, -z'
9 '-y+1/2, -x+1/2, z'
10 'y, -x+1/2, z'
11 '-y+1/2, x, z'
12 'y, x, z'
13 '-x+1/2, -y+1/2, z'
14 'x, -y+1/2, z'
15 '-x+1/2, y, z'
16 'x, y, z'
loop_
_atom_type_symbol
_atom_type_oxidation_number
La0+ 0
Pt0+ 0
Ge0+ 0
loop_
_atom_site_label
_atom_site_type_symbol
_atom_site_symmetry_multiplicity
_atom_site_Wyckoff_symbol
_atom_site_fract_x
_atom_site_fract_y
_atom_site_fract_z
_atom_site_B_iso_or_equiv
_atom_site_occupancy
_atom_site_attached_hydrogens
La1 La0+ 2 c 0.25 0.25 0.74644(10) 0.0048(3) 1 0
Pt1 Pt0+ 2 a 0.25 0.75 0. 0.0171(3) 1 0
Pt2 Pt0+ 2 c 0.25 0.25 0.37871(7) 0.00415(19) 1 0
Ge1 Ge0+ 2 b 0.25 0.75 0.5 0.0047(4) 1 0
Ge2 Ge0+ 2 c 0.25 0.25 0.1307(2) 0.0119(5) 1 0
loop_
_atom_site_aniso_label
_atom_site_aniso_type_symbol
_atom_site_aniso_U_11
_atom_site_aniso_U_22
_atom_site_aniso_U_33
_atom_site_aniso_U_12
_atom_site_aniso_U_13
_atom_site_aniso_U_23
La1 La0+ 0.0042(4) 0.0042(4) 0.0061(4) 0. 0. 0.
Pt1 Pt0+ 0.0212(4) 0.0212(4) 0.0090(3) 0. 0. 0.
Pt2 Pt0+ 0.0027(2) 0.0027(2) 0.0070(3) 0. 0. 0.
Ge1 Ge0+ 0.0037(6) 0.0037(6) 0.0066(7) 0. 0. 0.
Ge2 Ge0+ 0.0139(8) 0.0139(8) 0.0078(8) 0. 0. 0.
#End of TTdata_416423-ICSD
