
#(C) 2019 by FIZ Karlsruhe - Leibniz Institute for Information Infrastructure.  All rights reserved.
data_418391-ICSD
_database_code_ICSD 418391
_audit_creation_date 2008-08-01
_chemical_name_systematic 'Strontium aluminium germanide (1/1/1)'
_chemical_formula_structural 'Sr Al Ge'
_chemical_formula_sum 'Al1 Ge1 Sr1'
_chemical_name_structure_type BaPtSb
_exptl_crystal_density_diffrn 4.1
_cell_measurement_temperature 293.
_publ_section_title

;
New Sr compounds with planar Al-Si/Ge anions and a correction of Sr Si-II and
Sr Ge0.76
;
loop_
_citation_id
_citation_journal_full
_citation_year
_citation_journal_volume
_citation_page_first
_citation_page_last
_citation_journal_id_ASTM
primary 'Zeitschrift fuer Anorganische und Allgemeine Chemie (1950) (DE)' 2008
634 153 165 ZAACAB
loop_
_publ_author_name
'Eisenmann, B.'
'Rhode, M.'
'Wendorff, M.'
'Roehr, C.'
_cell_length_a 4.294(3)
_cell_length_b 4.294(3)
_cell_length_c 4.744(3)
_cell_angle_alpha 90.
_cell_angle_beta 90.
_cell_angle_gamma 120.
_cell_volume 75.75
_cell_formula_units_Z 1
_symmetry_space_group_name_H-M 'P -6 m 2'
_symmetry_Int_Tables_number 187
_refine_ls_R_factor_all 0.0315
loop_
_symmetry_equiv_pos_site_id
_symmetry_equiv_pos_as_xyz
1 'x, x-y, -z'
2 '-x+y, y, -z'
3 '-y, -x, -z'
4 'x, x-y, z'
5 '-x+y, y, z'
6 '-y, -x, z'
7 '-x+y, -x, -z'
8 '-y, x-y, -z'
9 'x, y, -z'
10 '-x+y, -x, z'
11 '-y, x-y, z'
12 'x, y, z'
loop_
_atom_type_symbol
_atom_type_oxidation_number
Sr0+ 0
Al0+ 0
Ge0+ 0
loop_
_atom_site_label
_atom_site_type_symbol
_atom_site_symmetry_multiplicity
_atom_site_Wyckoff_symbol
_atom_site_fract_x
_atom_site_fract_y
_atom_site_fract_z
_atom_site_B_iso_or_equiv
_atom_site_occupancy
_atom_site_attached_hydrogens
Sr1 Sr0+ 1 a 0. 0. 0. 0.0166(5) 1 0
Al1 Al0+ 1 f 0.6667 0.3333 0.5 0.0290(19) 1 0
Ge1 Ge0+ 1 d 0.3333 0.6667 0.5 0.0185(7) 1 0
loop_
_atom_site_aniso_label
_atom_site_aniso_type_symbol
_atom_site_aniso_U_11
_atom_site_aniso_U_22
_atom_site_aniso_U_33
_atom_site_aniso_U_12
_atom_site_aniso_U_13
_atom_site_aniso_U_23
Sr1 Sr0+ 0.0178(7) 0.0178(7) 0.0143(8) 0.0089(3) 0. 0.
Al1 Al0+ 0.0181(19) 0.0181(19) 0.051(6) 0.0091(9) 0. 0.
Ge1 Ge0+ 0.0128(8) 0.0128(8) 0.0299(16) 0.0064(4) 0. 0.
#End of TTdata_418391-ICSD
