
#(C) 2019 by FIZ Karlsruhe - Leibniz Institute for Information Infrastructure.  All rights reserved.
data_419206-ICSD
_database_code_ICSD 419206
_audit_creation_date 2008-08-01
_chemical_name_systematic 'Barium stannide (1/3)'
_chemical_formula_structural 'Ba Sn3'
_chemical_formula_sum 'Ba1 Sn3'
_chemical_name_structure_type Ni3Sn
_exptl_crystal_density_diffrn 6.54
_cell_measurement_temperature 293.
_publ_section_title

;
Structural complexity in intermetallic alloys: long-range order beyond 100 nm
in the system of Ba Sn3 / Ba Bi3
;
loop_
_citation_id
_citation_journal_full
_citation_year
_citation_journal_volume
_citation_page_first
_citation_page_last
_citation_journal_id_ASTM
primary 'Angewandte Chemie, International Edition' 2008 47 3999 4004 ACIEF5
loop_
_publ_author_name
'Ponou, S.'
'Faessler, T.F.'
'Kienle, L.'
_cell_length_a 7.254(4)
_cell_length_b 7.254(4)
_cell_length_c 5.500(3)
_cell_angle_alpha 90.
_cell_angle_beta 90.
_cell_angle_gamma 120.
_cell_volume 250.64
_cell_formula_units_Z 2
_symmetry_space_group_name_H-M 'P 63/m m c'
_symmetry_Int_Tables_number 194
_refine_ls_R_factor_all 0.0503
loop_
_symmetry_equiv_pos_site_id
_symmetry_equiv_pos_as_xyz
1 'x, x-y, -z+1/2'
2 '-x+y, y, -z+1/2'
3 '-y, -x, -z+1/2'
4 '-x+y, -x, -z+1/2'
5 '-y, x-y, -z+1/2'
6 'x, y, -z+1/2'
7 '-x, -x+y, z+1/2'
8 'x-y, -y, z+1/2'
9 'y, x, z+1/2'
10 'x-y, x, z+1/2'
11 'y, -x+y, z+1/2'
12 '-x, -y, z+1/2'
13 '-x, -x+y, -z'
14 'x-y, -y, -z'
15 'y, x, -z'
16 'x-y, x, -z'
17 'y, -x+y, -z'
18 '-x, -y, -z'
19 'x, x-y, z'
20 '-x+y, y, z'
21 '-y, -x, z'
22 '-x+y, -x, z'
23 '-y, x-y, z'
24 'x, y, z'
loop_
_atom_type_symbol
_atom_type_oxidation_number
Sn0+ 0
Ba0+ 0
loop_
_atom_site_label
_atom_site_type_symbol
_atom_site_symmetry_multiplicity
_atom_site_Wyckoff_symbol
_atom_site_fract_x
_atom_site_fract_y
_atom_site_fract_z
_atom_site_B_iso_or_equiv
_atom_site_occupancy
_atom_site_attached_hydrogens
Sn1 Sn0+ 6 h 0.2806(3) 0.14030(13) 0.25 0.0221(4) 1 0
Ba1 Ba0+ 2 c 0.3333 -0.3333 0.25 0.0215(5) 1 0
loop_
_atom_site_aniso_label
_atom_site_aniso_type_symbol
_atom_site_aniso_U_11
_atom_site_aniso_U_22
_atom_site_aniso_U_33
_atom_site_aniso_U_12
_atom_site_aniso_U_13
_atom_site_aniso_U_23
Sn1 Sn0+ 0.0228(7) 0.0209(6) 0.0233(4) 0.0114(4) 0. 0.
Ba1 Ba0+ 0.0184(6) 0.0184(6) 0.0278(7) 0.0092(3) 0. 0.
#End of TTdata_419206-ICSD
