
#(C) 2019 by FIZ Karlsruhe - Leibniz Institute for Information Infrastructure.  All rights reserved.
data_42133-ICSD
_database_code_ICSD 42133
_audit_creation_date 2000-07-15
_audit_update_record 2012-08-01
_chemical_name_systematic 'Molybdenum sulfide (3/4)'
_chemical_formula_structural 'Mo3 S4'
_chemical_formula_sum 'Mo3 S4'
_chemical_name_structure_type Mo3Se4
_exptl_crystal_density_diffrn 5.2
_publ_section_title

;
Un nouveau sulfure de molybdene: Mo3 S4, preparation, proprietes et structure
cristalline
;
loop_
_citation_id
_citation_journal_full
_citation_year
_citation_journal_volume
_citation_page_first
_citation_page_last
_citation_journal_id_ASTM
primary 'Materials Research Bulletin' 1974 9 1487 1498 MRBUAC
loop_
_publ_author_name
'Chevrel, R.'
'Sergent, M.'
'Prigent, J.'
_cell_length_a 6.432
_cell_length_b 6.432
_cell_length_c 6.432
_cell_angle_alpha 91.57
_cell_angle_beta 91.57
_cell_angle_gamma 91.57
_cell_volume 265.79
_cell_formula_units_Z 2
_symmetry_space_group_name_H-M 'R -3 R'
_symmetry_Int_Tables_number 148
_refine_ls_R_factor_all 0.038
loop_
_symmetry_equiv_pos_site_id
_symmetry_equiv_pos_as_xyz
1 '-z, -x, -y'
2 '-y, -z, -x'
3 '-x, -y, -z'
4 'z, x, y'
5 'y, z, x'
6 'x, y, z'
loop_
_atom_type_symbol
_atom_type_oxidation_number
Mo2+ 2.67
S2- -2
loop_
_atom_site_label
_atom_site_type_symbol
_atom_site_symmetry_multiplicity
_atom_site_Wyckoff_symbol
_atom_site_fract_x
_atom_site_fract_y
_atom_site_fract_z
_atom_site_B_iso_or_equiv
_atom_site_occupancy
_atom_site_attached_hydrogens
Mo1 Mo2+ 6 f 0.21297(9) 0.40547(9) 0.55044(9) 0.33(1) 1. 0
S1 S2- 6 f 0.38683(27) 0.13186(27) 0.73763(27) 0.52(2) 1. 0
S2 S2- 2 c 0.21711(27) 0.21711(27) 0.21711(27) 0.49(4) 1. 0
#End of TTdata_42133-ICSD