
#(C) 2019 by FIZ Karlsruhe - Leibniz Institute for Information Infrastructure.  All rights reserved.
data_424686-ICSD
_database_code_ICSD 424686
_audit_creation_date 2012-08-01
_chemical_name_systematic 'Potassium dinickel diselenide'
_chemical_formula_structural 'K Ni2 Se2'
_chemical_formula_sum 'K1 Ni2 Se2'
_chemical_name_structure_type BaZn2P2
_exptl_crystal_density_diffrn 5.1
_cell_measurement_temperature 300.
_publ_section_title

;
Bonding, ion mobility, and rate-limiting steps in deintercalation reactions
with Th Cr2 Si2 - type K Ni2 Se2
;
loop_
_citation_id
_citation_journal_full
_citation_year
_citation_journal_volume
_citation_page_first
_citation_page_last
_citation_journal_id_ASTM
primary 'Journal of the American Chemical Society' 2012 134 7750 7757 JACSAT
loop_
_publ_author_name
'Neilson, J.R.'
'McQueen, T.M.'
_cell_length_a 3.9089(8)
_cell_length_b 3.9089(8)
_cell_length_c 13.4142(5)
_cell_angle_alpha 90.
_cell_angle_beta 90.
_cell_angle_gamma 90.
_cell_volume 204.96
_cell_formula_units_Z 2
_symmetry_space_group_name_H-M 'I 4/m m m'
_symmetry_Int_Tables_number 139
_refine_ls_R_factor_all 0.0628
loop_
_symmetry_equiv_pos_site_id
_symmetry_equiv_pos_as_xyz
1 'y, x, -z'
2 '-y, -x, -z'
3 '-y, x, -z'
4 'y, -x, -z'
5 '-x, y, -z'
6 'x, -y, -z'
7 'x, y, -z'
8 '-x, -y, -z'
9 '-y, -x, z'
10 'y, x, z'
11 'y, -x, z'
12 '-y, x, z'
13 'x, -y, z'
14 '-x, y, z'
15 '-x, -y, z'
16 'x, y, z'
17 'y+1/2, x+1/2, -z+1/2'
18 '-y+1/2, -x+1/2, -z+1/2'
19 '-y+1/2, x+1/2, -z+1/2'
20 'y+1/2, -x+1/2, -z+1/2'
21 '-x+1/2, y+1/2, -z+1/2'
22 'x+1/2, -y+1/2, -z+1/2'
23 'x+1/2, y+1/2, -z+1/2'
24 '-x+1/2, -y+1/2, -z+1/2'
25 '-y+1/2, -x+1/2, z+1/2'
26 'y+1/2, x+1/2, z+1/2'
27 'y+1/2, -x+1/2, z+1/2'
28 '-y+1/2, x+1/2, z+1/2'
29 'x+1/2, -y+1/2, z+1/2'
30 '-x+1/2, y+1/2, z+1/2'
31 '-x+1/2, -y+1/2, z+1/2'
32 'x+1/2, y+1/2, z+1/2'
loop_
_atom_type_symbol
_atom_type_oxidation_number
K0+ 0
Ni0+ 0
Se0+ 0
loop_
_atom_site_label
_atom_site_type_symbol
_atom_site_symmetry_multiplicity
_atom_site_Wyckoff_symbol
_atom_site_fract_x
_atom_site_fract_y
_atom_site_fract_z
_atom_site_B_iso_or_equiv
_atom_site_occupancy
_atom_site_attached_hydrogens
K1 K0+ 2 a 0. 0. 0. 0.0161 1. 0
Ni1 Ni0+ 4 d 0. 0.5 0.25 0.01567 1. 0
Se1 Se0+ 4 e 0. 0. 0.35429(2) 0.01336 1. 0
loop_
_atom_site_aniso_label
_atom_site_aniso_type_symbol
_atom_site_aniso_U_11
_atom_site_aniso_U_22
_atom_site_aniso_U_33
_atom_site_aniso_U_12
_atom_site_aniso_U_13
_atom_site_aniso_U_23
K1 K0+ 0.0125(2) 0.0125(2) 0.0233(4) 0. 0. 0.
Ni1 Ni0+ 0.0110(1) 0.0110(1) 0.0250(2) 0. 0. 0.
Se1 Se0+ 0.0092(1) 0.0092(1) 0.0217(1) 0. 0. 0.
#End of TTdata_424686-ICSD