
#(C) 2019 by FIZ Karlsruhe - Leibniz Institute for Information Infrastructure.  All rights reserved.
data_42554-ICSD
_database_code_ICSD 42554
_audit_creation_date 2000-07-15
_audit_update_record 2019-02-01
_chemical_name_systematic 'Palladium telluride (1/2) - 2H'
_chemical_formula_structural 'Pd Te2'
_chemical_formula_sum 'Pd1 Te2'
_chemical_name_structure_type EuGe2/PtTe2
_chemical_name_mineral Merenskyite
_exptl_crystal_density_diffrn 8.3
_cell_measurement_temperature 293.
_publ_section_title

;
High temperature X-ray study of the thermal expansion of PtS2, PtSe2, PtTe2
and PdTe2
;
_publ_section_comment 'Cell and Type only determined'
loop_
_citation_id
_citation_journal_full
_citation_year
_citation_journal_volume
_citation_page_first
_citation_page_last
_citation_journal_id_ASTM
primary 'Acta Chemica Scandinavica ' 1959 13 1767 1774 ACSAA4
loop_
_publ_author_name
'Kjekshus, Arne'
'Groenvold, Frederik'
_cell_length_a 4.0365
_cell_length_b 4.0365
_cell_length_c 5.1262
_cell_angle_alpha 90.
_cell_angle_beta 90.
_cell_angle_gamma 120.
_cell_volume 72.33
_cell_formula_units_Z 1
_symmetry_space_group_name_H-M 'P -3 m 1'
_symmetry_Int_Tables_number 164
loop_
_symmetry_equiv_pos_site_id
_symmetry_equiv_pos_as_xyz
1 'x-y, -y, -z'
2 '-x, -x+y, -z'
3 'y, x, -z'
4 'x-y, x, -z'
5 'y, -x+y, -z'
6 '-x, -y, -z'
7 '-x+y, y, z'
8 'x, x-y, z'
9 '-y, -x, z'
10 '-x+y, -x, z'
11 '-y, x-y, z'
12 'x, y, z'
loop_
_atom_type_symbol
_atom_type_oxidation_number
Pd4+ 4
Te2- -2
loop_
_atom_site_label
_atom_site_type_symbol
_atom_site_symmetry_multiplicity
_atom_site_Wyckoff_symbol
_atom_site_fract_x
_atom_site_fract_y
_atom_site_fract_z
_atom_site_B_iso_or_equiv
_atom_site_occupancy
_atom_site_attached_hydrogens
Pd1 Pd4+ 1 a 0 0 0 . 1. 0
Te1 Te2- 2 d 0.3333 0.6667 0.25 . 1. 0
#End of TTdata_42554-ICSD