
#(C) 2019 by FIZ Karlsruhe - Leibniz Institute for Information Infrastructure.  All rights reserved.
data_426890-ICSD
_database_code_ICSD 426890
_audit_creation_date 2014-08-01
_chemical_name_systematic 'Rhodium bismuthide (3/14)'
_chemical_formula_structural 'Rh3 Bi14'
_chemical_formula_sum 'Bi14 Rh3'
_chemical_name_structure_type Bi12Rh3Br2
_exptl_crystal_density_diffrn 11.3
_cell_measurement_temperature 296.
_publ_section_title
'The topochemical pseudomorphosis of a chloride into a bismuthide'
loop_
_citation_id
_citation_journal_full
_citation_year
_citation_journal_volume
_citation_page_first
_citation_page_last
_citation_journal_id_ASTM
primary 'Angewandte Chemie, International Edition' 2014 53 3254 3258 ACIEF5
loop_
_publ_author_name
'Kaiser, Martin'
'Rasche, Bertold'
'Ruck, Michael'
_cell_length_a 6.9002(3)
_cell_length_b 17.3616(7)
_cell_length_c 31.6944(13)
_cell_angle_alpha 90.
_cell_angle_beta 90.
_cell_angle_gamma 90.
_cell_volume 3796.94
_cell_formula_units_Z 8
_symmetry_space_group_name_H-M 'F d d d Z'
_symmetry_Int_Tables_number 70
_refine_ls_R_factor_all 0.0274
loop_
_symmetry_equiv_pos_site_id
_symmetry_equiv_pos_as_xyz
1 'x+3/4, y+3/4, -z'
2 'x+3/4, -y, z+3/4'
3 '-x, y+3/4, z+3/4'
4 '-x, -y, -z'
5 '-x+1/4, -y+1/4, z'
6 '-x+1/4, y, -z+1/4'
7 'x, -y+1/4, -z+1/4'
8 'x, y, z'
9 'x+3/4, y+1/4, -z+1/2'
10 'x+3/4, -y+1/2, z+1/4'
11 '-x, y+1/4, z+1/4'
12 '-x, -y+1/2, -z+1/2'
13 '-x+1/4, -y+3/4, z+1/2'
14 '-x+1/4, y+1/2, -z+3/4'
15 'x, -y+3/4, -z+3/4'
16 'x, y+1/2, z+1/2'
17 'x+1/4, y+3/4, -z+1/2'
18 'x+1/4, -y, z+1/4'
19 '-x+1/2, y+3/4, z+1/4'
20 '-x+1/2, -y, -z+1/2'
21 '-x+3/4, -y+1/4, z+1/2'
22 '-x+3/4, y, -z+3/4'
23 'x+1/2, -y+1/4, -z+3/4'
24 'x+1/2, y, z+1/2'
25 'x+1/4, y+1/4, -z'
26 'x+1/4, -y+1/2, z+3/4'
27 '-x+1/2, y+1/4, z+3/4'
28 '-x+1/2, -y+1/2, -z'
29 '-x+3/4, -y+3/4, z'
30 '-x+3/4, y+1/2, -z+1/4'
31 'x+1/2, -y+3/4, -z+1/4'
32 'x+1/2, y+1/2, z'
loop_
_atom_type_symbol
_atom_type_oxidation_number
Bi0+ 0
Rh0+ 0
loop_
_atom_site_label
_atom_site_type_symbol
_atom_site_symmetry_multiplicity
_atom_site_Wyckoff_symbol
_atom_site_fract_x
_atom_site_fract_y
_atom_site_fract_z
_atom_site_B_iso_or_equiv
_atom_site_occupancy
_atom_site_attached_hydrogens
Bi1 Bi0+ 32 h -0.00577(8) 0.24538(3) 0.07201(2) 0.01522(15) 1 0
Bi2 Bi0+ 32 h 0.42821(9) 0.18395(3) 0.07299(2) 0.01504(15) 1 0
Bi3 Bi0+ 32 h 0.15804(9) 0.40730(3) 0.01619(2) 0.01637(15) 1 0
Bi4 Bi0+ 16 f 0.125 0.40645(5) 0.125 0.0312(2) 1 0
Rh1 Rh0+ 16 c 0.25 0.25 0. 0.0130(3) 1 0
Rh2 Rh0+ 8 a 0.125 0.125 0.125 0.0116(5) 1 0
loop_
_atom_site_aniso_label
_atom_site_aniso_type_symbol
_atom_site_aniso_U_11
_atom_site_aniso_U_22
_atom_site_aniso_U_33
_atom_site_aniso_U_12
_atom_site_aniso_U_13
_atom_site_aniso_U_23
Bi1 Bi0+ 0.0184(3) 0.0146(3) 0.0127(2) 0.0025(2) 0.0016(2) 0.00227(19)
Bi2 Bi0+ 0.0162(3) 0.0172(3) 0.0118(2) 0.0003(2) 0.0004(2) 0.00332(18)
Bi3 Bi0+ 0.0222(4) 0.0126(2) 0.0144(2) 0.0000(2) 0.0048(2) -0.00203(19)
Bi4 Bi0+ 0.0528(8) 0.0211(4) 0.0197(4) 0. -0.0116(4) 0.
Rh1 Rh0+ 0.0205(10) 0.0105(7) 0.0081(6) 0.0002(6) 0.0021(6) 0.0015(5)
Rh2 Rh0+ 0.0177(14) 0.0112(10) 0.0058(9) 0. 0. 0.
#End of TTdata_426890-ICSD