
#(C) 2019 by FIZ Karlsruhe - Leibniz Institute for Information Infrastructure.  All rights reserved.
data_42981-ICSD
_database_code_ICSD 42981
_audit_creation_date 2000-07-15
_audit_update_record 2017-08-01
_chemical_name_systematic 'Diniobium(III) selenide'
_chemical_formula_structural 'Nb2 Se3'
_chemical_formula_sum 'Nb2 Se3'
_chemical_name_structure_type Nb2Se3
_exptl_crystal_density_diffrn 7.01
_cell_measurement_temperature 293.
_publ_section_title
'The crystal structures of niobium(III) selenide and tantalum(III) selenide'
loop_
_citation_id
_citation_journal_full
_citation_year
_citation_journal_volume
_citation_page_first
_citation_page_last
_citation_journal_id_ASTM
primary

;
Acta Crystallographica, Section B: Structural Crystallography and Crystal
Chemistry
; 1968 24 1102 1106 ACBCAR
loop_
_publ_author_name
'Kadijk, F.'
'Huisman, R.'
'Jellinek, F.'
_cell_length_a 6.503
_cell_length_b 3.434
_cell_length_c 9.215
_cell_angle_alpha 90.
_cell_angle_beta 103.39
_cell_angle_gamma 90.
_cell_volume 200.19
_cell_formula_units_Z 2
_symmetry_space_group_name_H-M 'P 1 21/m 1'
_symmetry_Int_Tables_number 11
_refine_ls_R_factor_all 0.0877
loop_
_symmetry_equiv_pos_site_id
_symmetry_equiv_pos_as_xyz
1 'x, -y+1/2, z'
2 '-x, -y, -z'
3 '-x, y+1/2, -z'
4 'x, y, z'
loop_
_atom_type_symbol
_atom_type_oxidation_number
Nb3+ 3
Se2- -2
loop_
_atom_site_label
_atom_site_type_symbol
_atom_site_symmetry_multiplicity
_atom_site_Wyckoff_symbol
_atom_site_fract_x
_atom_site_fract_y
_atom_site_fract_z
_atom_site_B_iso_or_equiv
_atom_site_occupancy
_atom_site_attached_hydrogens
Nb1 Nb3+ 2 e 0.3147(6) 0.25 0.0036(4) 0.38 1. 0
Nb2 Nb3+ 2 e 0.1138(6) 0.25 0.6369(4) 0.29 1. 0
Se1 Se2- 2 e 0.5211(7) 0.25 0.7967(5) 0.36 1. 0
Se2 Se2- 2 e 0.9733(7) 0.25 0.1564(5) 0.48 1. 0
Se3 Se2- 2 e 0.7279(7) 0.25 0.5144(5) 0.43 1. 0
#End of TTdata_42981-ICSD