
#(C) 2019 by FIZ Karlsruhe - Leibniz Institute for Information Infrastructure.  All rights reserved.
data_430063-ICSD
_database_code_ICSD 430063
_audit_creation_date 2016-02-01
_audit_update_record 2018-02-01
_chemical_name_systematic 'Barium dititanium dibismuthide oxide'
_chemical_formula_structural 'Ba Ti2 Bi2 O'
_chemical_formula_sum 'Ba1 Bi2 O1 Ti2'
_chemical_name_structure_type BaTi2As2O
_exptl_crystal_density_diffrn 7.81
_cell_measurement_temperature 293.
_publ_section_title

;
Synthesis and physical properties of the new oxybismuthides Ba Ti2 Bi2 O and
(S rF)2 Ti2 Bi2 O with a d1 square net
;
loop_
_citation_id
_citation_journal_full
_citation_year
_citation_journal_volume
_citation_page_first
_citation_page_last
_citation_journal_id_ASTM
primary 'Journal of the Physical Society of Japan' 2013 82 013703-1 013703-4
JUPSAU
loop_
_publ_author_name
'Yajima, Takeshi'
'Nakano, Kousuke'
'Takeiri, Fumitaka'
'Hester, James'
'Yamamoto, Takafumi'
'Kobayashi, Yoji'
'Tsuji, Naruki'
'Kim, Jungeun'
'Fujiwara, Akihiko'
'Kageyama, Hiroshi'
_cell_length_a 4.12316(4)
_cell_length_b 4.12316(4)
_cell_length_c 8.3447(1)
_cell_angle_alpha 90.
_cell_angle_beta 90.
_cell_angle_gamma 90.
_cell_volume 141.87
_cell_formula_units_Z 1
_symmetry_space_group_name_H-M 'P 4/m m m'
_symmetry_Int_Tables_number 123
_refine_ls_R_factor_all 0.0481
loop_
_symmetry_equiv_pos_site_id
_symmetry_equiv_pos_as_xyz
1 'y, x, -z'
2 '-y, -x, -z'
3 '-y, x, -z'
4 'y, -x, -z'
5 '-x, y, -z'
6 'x, -y, -z'
7 'x, y, -z'
8 '-x, -y, -z'
9 '-y, -x, z'
10 'y, x, z'
11 'y, -x, z'
12 '-y, x, z'
13 'x, -y, z'
14 '-x, y, z'
15 '-x, -y, z'
16 'x, y, z'
loop_
_atom_type_symbol
_atom_type_oxidation_number
Ba2+ 2
Ti3+ 3
Bi3- -3
O2- -2
loop_
_atom_site_label
_atom_site_type_symbol
_atom_site_symmetry_multiplicity
_atom_site_Wyckoff_symbol
_atom_site_fract_x
_atom_site_fract_y
_atom_site_fract_z
_atom_site_B_iso_or_equiv
_atom_site_occupancy
_atom_site_attached_hydrogens
Ba1 Ba2+ 1 d 0.5 0.5 0.5 0.0164(5) 1. 0
Ti1 Ti3+ 2 f 0.5 0 0 0.0072(9) 1. 0
Bi1 Bi3- 2 g 0 0 0.7487(2) 0.0101(2) 1. 0
O1 O2- 1 c 0.5 0.5 0 0.0126(7) 1. 0
#End of TTdata_430063-ICSD