
#(C) 2019 by FIZ Karlsruhe - Leibniz Institute for Information Infrastructure.  All rights reserved.
data_430061-ICSD
_database_code_ICSD 430061
_audit_creation_date 2016-02-01
_audit_update_record 2018-02-01
_chemical_name_systematic 'Barium dititanium diantimonide oxide'
_chemical_formula_structural 'Ba Ti2 Sb2 O'
_chemical_formula_sum 'Ba1 O1 Sb2 Ti2'
_chemical_name_structure_type BaTi2As2O
_exptl_crystal_density_diffrn 6.01
_cell_measurement_temperature 293.
_publ_section_title 'Superconductivity in Ba Ti2 Sb2 O with a d1 square lattice'
loop_
_citation_id
_citation_journal_full
_citation_year
_citation_journal_volume
_citation_page_first
_citation_page_last
_citation_journal_id_ASTM
primary 'Journal of the Physical Society of Japan' 2012 81 103706-1 103706-4
JUPSAU
loop_
_publ_author_name
'Yajima, Takeshi'
'Nakano, Kousuke'
'Takeiri, Fumitaka'
'Ono, Toshio'
'Hosokoshi, Yuko'
'Matsushita, Yoshitaka'
'Hester, James'
'Kobayashi, Yoji'
'Kageyama, Hiroshi'
_cell_length_a 4.1055(2)
_cell_length_b 4.1055(2)
_cell_length_c 8.0712(4)
_cell_angle_alpha 90.
_cell_angle_beta 90.
_cell_angle_gamma 90.
_cell_volume 136.04
_cell_formula_units_Z 1
_symmetry_space_group_name_H-M 'P 4/m m m'
_symmetry_Int_Tables_number 123
_refine_ls_R_factor_all 0.0524
loop_
_symmetry_equiv_pos_site_id
_symmetry_equiv_pos_as_xyz
1 'y, x, -z'
2 '-y, -x, -z'
3 '-y, x, -z'
4 'y, -x, -z'
5 '-x, y, -z'
6 'x, -y, -z'
7 'x, y, -z'
8 '-x, -y, -z'
9 '-y, -x, z'
10 'y, x, z'
11 'y, -x, z'
12 '-y, x, z'
13 'x, -y, z'
14 '-x, y, z'
15 '-x, -y, z'
16 'x, y, z'
loop_
_atom_type_symbol
_atom_type_oxidation_number
Ba2+ 2
Ti3+ 3
Sb3- -3
O2- -2
loop_
_atom_site_label
_atom_site_type_symbol
_atom_site_symmetry_multiplicity
_atom_site_Wyckoff_symbol
_atom_site_fract_x
_atom_site_fract_y
_atom_site_fract_z
_atom_site_B_iso_or_equiv
_atom_site_occupancy
_atom_site_attached_hydrogens
Ba1 Ba2+ 1 d 0.5 0.5 0.5 0.0065(5) 1. 0
Ti1 Ti3+ 2 f 0.5 0 0 0.0044(4) 1. 0
Sb1 Sb3- 2 g 0 0 0.7533(3) 0.0080(3) 1. 0
O1 O2- 1 c 0.5 0.5 0 0.0056(5) 1. 0
#End of TTdata_430061-ICSD