
#(C) 2019 by FIZ Karlsruhe - Leibniz Institute for Information Infrastructure.  All rights reserved.
data_43317-ICSD
_database_code_ICSD 43317
_audit_creation_date 2000-07-15
_audit_update_record 2006-04-01
_chemical_name_systematic 'Ruthenium boride (1/2)'
_chemical_formula_structural 'Ru B2'
_chemical_formula_sum 'B2 Ru1'
_chemical_name_structure_type RuB2
_exptl_crystal_density_diffrn 7.57
_publ_section_title 'Borides of ruthenium, osmium and iridium'
loop_
_citation_id
_citation_journal_full
_citation_year
_citation_journal_volume
_citation_page_first
_citation_page_last
_citation_journal_id_ASTM
primary 'Nature (London, United Kingdom)' 1962 195 377 378 NATUAS
loop_
_publ_author_name
'Aronsson, B.'
'Stenberg, E.'
'Aselius, J.'
_cell_length_a 4.645
_cell_length_b 2.865
_cell_length_c 4.045
_cell_angle_alpha 90.
_cell_angle_beta 90.
_cell_angle_gamma 90.
_cell_volume 53.83
_cell_formula_units_Z 2
_symmetry_space_group_name_H-M 'P m m n Z'
_symmetry_Int_Tables_number 59
loop_
_symmetry_equiv_pos_site_id
_symmetry_equiv_pos_as_xyz
1 'x+1/2, y+1/2, -z'
2 '-x, y+1/2, -z'
3 'x+1/2, -y, -z'
4 '-x, -y, -z'
5 '-x+1/2, -y+1/2, z'
6 'x, -y+1/2, z'
7 '-x+1/2, y, z'
8 'x, y, z'
loop_
_atom_type_symbol
_atom_type_oxidation_number
Ru0+ 0
B0+ 0
loop_
_atom_site_label
_atom_site_type_symbol
_atom_site_symmetry_multiplicity
_atom_site_Wyckoff_symbol
_atom_site_fract_x
_atom_site_fract_y
_atom_site_fract_z
_atom_site_B_iso_or_equiv
_atom_site_occupancy
_atom_site_attached_hydrogens
Ru1 Ru0+ 2 a 0.25 0.25 0.1508 . 1. 0
B1 B0+ 4 f 0.059 0.25 0.639 . 1. 0
#End of TTdata_43317-ICSD