
#(C) 2019 by FIZ Karlsruhe - Leibniz Institute for Information Infrastructure.  All rights reserved.
data_44655-ICSD
_database_code_ICSD 44655
_audit_creation_date 2000-12-16
_audit_update_record 2018-08-01
_chemical_name_systematic 'Indium(II) diindium telluride - HP'
_chemical_formula_structural 'In3 Te4'
_chemical_formula_sum 'In3 Te4'
_exptl_crystal_density_diffrn 6.59
_publ_section_title

;
Crystal chemistry and superconductivity of pressure-induced phases in the
In-Te system
;
loop_
_citation_id
_citation_journal_full
_citation_year
_citation_journal_volume
_citation_page_first
_citation_page_last
_citation_journal_id_ASTM
primary 'Journal of Physics and Chemistry of Solids' 1965 26 353 361 JPCSAW
loop_
_publ_author_name
'Geller, S.'
'Jayaraman, A.'
'Hull, G.W.'
_cell_length_a 4.27(1)
_cell_length_b 4.27
_cell_length_c 40.90(10)
_cell_angle_alpha 90.
_cell_angle_beta 90.
_cell_angle_gamma 120.
_cell_volume 645.82
_cell_formula_units_Z 3
_symmetry_space_group_name_H-M 'R -3 m H'
_symmetry_Int_Tables_number 166
loop_
_symmetry_equiv_pos_site_id
_symmetry_equiv_pos_as_xyz
1 'x-y, -y, -z'
2 '-x, -x+y, -z'
3 'y, x, -z'
4 'x-y, x, -z'
5 'y, -x+y, -z'
6 '-x, -y, -z'
7 '-x+y, y, z'
8 'x, x-y, z'
9 '-y, -x, z'
10 '-x+y, -x, z'
11 '-y, x-y, z'
12 'x, y, z'
13 'x-y+2/3, -y+1/3, -z+1/3'
14 '-x+2/3, -x+y+1/3, -z+1/3'
15 'y+2/3, x+1/3, -z+1/3'
16 'x-y+2/3, x+1/3, -z+1/3'
17 'y+2/3, -x+y+1/3, -z+1/3'
18 '-x+2/3, -y+1/3, -z+1/3'
19 '-x+y+2/3, y+1/3, z+1/3'
20 'x+2/3, x-y+1/3, z+1/3'
21 '-y+2/3, -x+1/3, z+1/3'
22 '-x+y+2/3, -x+1/3, z+1/3'
23 '-y+2/3, x-y+1/3, z+1/3'
24 'x+2/3, y+1/3, z+1/3'
25 'x-y+1/3, -y+2/3, -z+2/3'
26 '-x+1/3, -x+y+2/3, -z+2/3'
27 'y+1/3, x+2/3, -z+2/3'
28 'x-y+1/3, x+2/3, -z+2/3'
29 'y+1/3, -x+y+2/3, -z+2/3'
30 '-x+1/3, -y+2/3, -z+2/3'
31 '-x+y+1/3, y+2/3, z+2/3'
32 'x+1/3, x-y+2/3, z+2/3'
33 '-y+1/3, -x+2/3, z+2/3'
34 '-x+y+1/3, -x+2/3, z+2/3'
35 '-y+1/3, x-y+2/3, z+2/3'
36 'x+1/3, y+2/3, z+2/3'
loop_
_atom_type_symbol
_atom_type_oxidation_number
In0+ 0
Te0+ 0
loop_
_atom_site_label
_atom_site_type_symbol
_atom_site_symmetry_multiplicity
_atom_site_Wyckoff_symbol
_atom_site_fract_x
_atom_site_fract_y
_atom_site_fract_z
_atom_site_B_iso_or_equiv
_atom_site_occupancy
_atom_site_attached_hydrogens
In1 In0+ 3 a 0 0 0 . 1. 0
In2 In0+ 6 c 0 0 0.4273 . 1. 0
Te1 Te0+ 6 c 0 0 0.1284 . 1. 0
Te2 Te0+ 6 c 0 0 0.2908 . 1. 0
#End of TTdata_44655-ICSD