
#(C) 2019 by FIZ Karlsruhe - Leibniz Institute for Information Infrastructure.  All rights reserved.
data_44861-ICSD
_database_code_ICSD 44861
_audit_creation_date 2000-12-16
_chemical_name_systematic 'Rhodium(VI) germanide'
_chemical_formula_structural 'Rh Ge'
_chemical_formula_sum 'Ge1 Rh1'
_chemical_name_structure_type MnP
_exptl_crystal_density_diffrn 9.61
_publ_section_title

;
The rhodium-germanium system I. The crystal structures of Rh2 Ge, Rh5 Ge3 and
Rh Ge
;
loop_
_citation_id
_citation_journal_full
_citation_year
_citation_journal_volume
_citation_page_first
_citation_page_last
_citation_journal_id_ASTM
primary 'Acta Crystallographica' 1955 8 14 21 ACCRA9
loop_
_publ_author_name
'Geller, S.'
_cell_length_a 5.70(3)
_cell_length_b 6.48(3)
_cell_length_c 3.25(3)
_cell_angle_alpha 90.
_cell_angle_beta 90.
_cell_angle_gamma 90.
_cell_volume 120.04
_cell_formula_units_Z 4
_symmetry_space_group_name_H-M 'P n a m'
_symmetry_Int_Tables_number 62
_refine_ls_R_factor_all 0.13
loop_
_symmetry_equiv_pos_site_id
_symmetry_equiv_pos_as_xyz
1 'x+1/2, -y+1/2, z'
2 'x, y, -z+1/2'
3 '-x+1/2, y+1/2, z+1/2'
4 '-x, -y, -z'
5 '-x+1/2, y+1/2, -z'
6 '-x, -y, z+1/2'
7 'x+1/2, -y+1/2, -z+1/2'
8 'x, y, z'
loop_
_atom_type_symbol
_atom_type_oxidation_number
Rh4+ 4
Ge4- -4
loop_
_atom_site_label
_atom_site_type_symbol
_atom_site_symmetry_multiplicity
_atom_site_Wyckoff_symbol
_atom_site_fract_x
_atom_site_fract_y
_atom_site_fract_z
_atom_site_B_iso_or_equiv
_atom_site_occupancy
_atom_site_attached_hydrogens
Rh1 Rh4+ 4 c 0.007 0.202 0.25 0.5 1. 0
Ge1 Ge4- 4 c 0.191 0.564 0.25 0.5 1. 0
#End of TTdata_44861-ICSD