
#(C) 2019 by FIZ Karlsruhe - Leibniz Institute for Information Infrastructure.  All rights reserved.
data_53801-ICSD
_database_code_ICSD 53801
_audit_creation_date 2003-04-01
_audit_update_record 2018-08-01
_chemical_name_systematic Selenium
_chemical_formula_structural Se
_chemical_formula_sum Se1
_chemical_name_structure_type Se(gamma)
_chemical_name_mineral Selenium
_exptl_crystal_density_diffrn 4.84
_publ_section_title
'The crystal structures of the rhombohedral forms of selenium and tellurium.'
loop_
_citation_id
_citation_journal_full
_citation_year
_citation_journal_volume
_citation_page_first
_citation_page_last
_citation_journal_id_ASTM
primary 'Philosophical Magazine ' 1924 48 477 496 PHMAA4
loop_
_publ_author_name
'Bradley, A.J.'
_cell_length_a 4.35
_cell_length_b 4.35
_cell_length_c 4.96
_cell_angle_alpha 90.
_cell_angle_beta 90.
_cell_angle_gamma 120.
_cell_volume 81.28
_cell_formula_units_Z 3
_symmetry_space_group_name_H-M 'P 31 2 1'
_symmetry_Int_Tables_number 152
loop_
_symmetry_equiv_pos_site_id
_symmetry_equiv_pos_as_xyz
1 'x-y, -y, -z+2/3'
2 '-x, -x+y, -z+1/3'
3 'y, x, -z'
4 '-x+y, -x, z+2/3'
5 '-y, x-y, z+1/3'
6 'x, y, z'
loop_
_atom_type_symbol
_atom_type_oxidation_number
Se0+ 0
loop_
_atom_site_label
_atom_site_type_symbol
_atom_site_symmetry_multiplicity
_atom_site_Wyckoff_symbol
_atom_site_fract_x
_atom_site_fract_y
_atom_site_fract_z
_atom_site_B_iso_or_equiv
_atom_site_occupancy
_atom_site_attached_hydrogens
Se1 Se0+ 3 a 0.217 0 0.3333 3.4 1. 0
#End of TTdata_53801-ICSD