
#(C) 2019 by FIZ Karlsruhe - Leibniz Institute for Information Infrastructure.  All rights reserved.
data_55065-ICSD
_database_code_ICSD 55065
_audit_creation_date 2005-04-01
_audit_update_record 2012-02-01
_chemical_name_systematic 'Potassium bismuth (1/1)'
_chemical_formula_structural 'K Bi'
_chemical_formula_sum 'Bi1 K1'
_chemical_name_structure_type KBi
_exptl_crystal_density_diffrn 5.18
_cell_measurement_temperature 213.
_publ_section_title

;
Alkalimetallbismutide A Bi und A Bi2 (A= K, Rb, Cs) - Synthesen,
Kristallstrukturen, Eigenschaften
;
loop_
_citation_id
_citation_journal_full
_citation_year
_citation_journal_volume
_citation_page_first
_citation_page_last
_citation_journal_id_ASTM
primary 'Zeitschrift fuer Anorganische und Allgemeine Chemie (1950) (DE)' 2004
630 171 178 ZAACAB
loop_
_publ_author_name
'Emmerling, F.'
'Laengin, N.'
'Petri, D.'
'Kroeker, M.'
'Roehr, C.'
_cell_length_a 14.223(2)
_cell_length_b 7.248(1)
_cell_length_c 13.420(2)
_cell_angle_alpha 90
_cell_angle_beta 113.030(3)
_cell_angle_gamma 90
_cell_volume 1273.18
_cell_formula_units_Z 16
_symmetry_space_group_name_H-M 'P 1 21/c 1'
_symmetry_Int_Tables_number 14
_refine_ls_R_factor_all 0.0391
loop_
_symmetry_equiv_pos_site_id
_symmetry_equiv_pos_as_xyz
1 'x, -y+1/2, z+1/2'
2 '-x, -y, -z'
3 '-x, y+1/2, -z+1/2'
4 'x, y, z'
loop_
_atom_type_symbol
_atom_type_oxidation_number
Bi0+ 0
K0+ 0
loop_
_atom_site_label
_atom_site_type_symbol
_atom_site_symmetry_multiplicity
_atom_site_Wyckoff_symbol
_atom_site_fract_x
_atom_site_fract_y
_atom_site_fract_z
_atom_site_B_iso_or_equiv
_atom_site_occupancy
_atom_site_attached_hydrogens
Bi1 Bi0+ 4 e 0.07595(5) 0.62903(10) 0.18188(5) 0.0223(2) 1. 0
Bi2 Bi0+ 4 e 0.11431(5) 0.37154(9) 0.37507(5) 0.0203(2) 1. 0
Bi3 Bi0+ 4 e 0.39080(5) 0.06517(9) 0.27459(5) 0.0197(2) 1. 0
Bi4 Bi0+ 4 e 0.58183(5) 0.29761(9) 0.39095(5) 0.0185(2) 1. 0
K1 K0+ 4 e 0.1194(3) 0.1180(5) 0.1472(3) 0.0256(8) 1. 0
K2 K0+ 4 e 0.3946(3) 0.3005(5) 0.0391(3) 0.0252(8) 1. 0
K3 K0+ 4 e 0.6537(3) 0.0714(5) 0.1911(3) 0.0247(8) 1. 0
K4 K0+ 4 e 0.8482(3) 0.3608(6) 0.0538(3) 0.0291(9) 1. 0
#End of TTdata_55065-ICSD
