
#(C) 2019 by FIZ Karlsruhe - Leibniz Institute for Information Infrastructure.  All rights reserved.
data_59187-ICSD
_database_code_ICSD 59187
_audit_creation_date 1986-12-03
_audit_update_record 1986-12-18
_chemical_name_systematic 'Strontium platinum arsenide (1/1/1)'
_chemical_formula_structural 'Sr Pt As'
_chemical_formula_sum 'As1 Pt1 Sr1'
_chemical_name_structure_type KZnAs
_exptl_crystal_density_diffrn 8.48
_publ_section_title

;
Trigonal-planar koordiniertes Platin: Darstellung und Struktur von Sr Pt As
(Sb), Ba Pt P (As, Sb), Sr Ptx P2-x, Sr Ptx As0.90 und Ba Ptx As0.90
;
loop_
_citation_id
_citation_journal_full
_citation_year
_citation_journal_volume
_citation_page_first
_citation_page_last
_citation_journal_id_ASTM
primary 'Zeitschrift fuer Anorganische und Allgemeine Chemie (1950) (DE)' 1986
535 110 122 ZAACAB
loop_
_publ_author_name
'Wenski, G.'
'Mewis, A.'
_cell_length_a 4.246(1)
_cell_length_b 4.246(1)
_cell_length_c 8.967(1)
_cell_angle_alpha 90.
_cell_angle_beta 90.
_cell_angle_gamma 120.
_cell_volume 140.
_cell_formula_units_Z 2
_symmetry_space_group_name_H-M 'P 63/m m c'
_symmetry_Int_Tables_number 194
_refine_ls_R_factor_all 0.072
loop_
_symmetry_equiv_pos_site_id
_symmetry_equiv_pos_as_xyz
1 'x, x-y, -z+1/2'
2 '-x+y, y, -z+1/2'
3 '-y, -x, -z+1/2'
4 '-x+y, -x, -z+1/2'
5 '-y, x-y, -z+1/2'
6 'x, y, -z+1/2'
7 '-x, -x+y, z+1/2'
8 'x-y, -y, z+1/2'
9 'y, x, z+1/2'
10 'x-y, x, z+1/2'
11 'y, -x+y, z+1/2'
12 '-x, -y, z+1/2'
13 '-x, -x+y, -z'
14 'x-y, -y, -z'
15 'y, x, -z'
16 'x-y, x, -z'
17 'y, -x+y, -z'
18 '-x, -y, -z'
19 'x, x-y, z'
20 '-x+y, y, z'
21 '-y, -x, z'
22 '-x+y, -x, z'
23 '-y, x-y, z'
24 'x, y, z'
loop_
_atom_type_symbol
_atom_type_oxidation_number
Sr0+ 0
Pt0+ 0
As0+ 0
loop_
_atom_site_label
_atom_site_type_symbol
_atom_site_symmetry_multiplicity
_atom_site_Wyckoff_symbol
_atom_site_fract_x
_atom_site_fract_y
_atom_site_fract_z
_atom_site_B_iso_or_equiv
_atom_site_occupancy
_atom_site_attached_hydrogens
Sr1 Sr0+ 2 a 0 0 0 0.0112(7) 1. 0
Pt1 Pt0+ 2 c 0.3333 0.6667 0.25 0.0109(5) 1. 0
As1 As0+ 2 d 0.6667 0.3333 0.25 0.0086(9) 1. 0
#End of TTdata_59187-ICSD
