
#(C) 2019 by FIZ Karlsruhe - Leibniz Institute for Information Infrastructure, and the U.S. Secretary of
#Commerce on behalf of the United States.  All rights reserved.
data_602892-ICSD
_database_code_ICSD 602892
_audit_creation_date 2010-02-01
_audit_update_record 2017-08-01
_chemical_name_systematic 'Tantalum boride (1/1)'
_chemical_formula_structural 'Ta B'
_chemical_formula_sum 'B1 Ta1'
_chemical_name_structure_type CrB
_exptl_crystal_density_diffrn 14.2
_publ_section_title

;
Single crystals of TaB, Ta5B6, Ta3B4 and TaB2, as obtained from
high-temperature metal solutions, and their properties
;
_publ_section_comment 'Cell and Type only determined'
loop_
_citation_id
_citation_journal_full
_citation_year
_citation_journal_volume
_citation_page_first
_citation_page_last
_citation_journal_id_ASTM
primary 'Journal of Crystal Growth' 1993 128 1120 1124 JCRGAE
loop_
_publ_author_name
'Okada, Shigeru'
'Kudou, Kunio'
'Higashi, Iwarni'
'Lundstroem, Torsten'
_cell_length_a 3.280(1)
_cell_length_b 8.670(3)
_cell_length_c 3.155(2)
_cell_angle_alpha 90.
_cell_angle_beta 90.
_cell_angle_gamma 90.
_cell_volume 89.72
_cell_formula_units_Z 4
_symmetry_space_group_name_H-M 'C m c m'
_symmetry_Int_Tables_number 63
loop_
_symmetry_equiv_pos_site_id
_symmetry_equiv_pos_as_xyz
1 '-x, y, -z+1/2'
2 '-x, -y, z+1/2'
3 '-x, y, z'
4 '-x, -y, -z'
5 'x, -y, z+1/2'
6 'x, y, -z+1/2'
7 'x, -y, -z'
8 'x, y, z'
9 '-x+1/2, y+1/2, -z+1/2'
10 '-x+1/2, -y+1/2, z+1/2'
11 '-x+1/2, y+1/2, z'
12 '-x+1/2, -y+1/2, -z'
13 'x+1/2, -y+1/2, z+1/2'
14 'x+1/2, y+1/2, -z+1/2'
15 'x+1/2, -y+1/2, -z'
16 'x+1/2, y+1/2, z'
loop_
_atom_type_symbol
_atom_type_oxidation_number
Ta0+ 0
B0+ 0
loop_
_atom_site_label
_atom_site_type_symbol
_atom_site_symmetry_multiplicity
_atom_site_Wyckoff_symbol
_atom_site_fract_x
_atom_site_fract_y
_atom_site_fract_z
_atom_site_B_iso_or_equiv
_atom_site_occupancy
_atom_site_attached_hydrogens
Ta1 Ta0+ 4 c 0 0.146 0.25 . 1. 0
B1 B0+ 4 c 0 0.44 0.25 . 1. 0
#End of TTdata_602892-ICSD
