
#(C) 2019 by FIZ Karlsruhe - Leibniz Institute for Information Infrastructure, and the U.S. Secretary of
#Commerce on behalf of the United States.  All rights reserved.
data_604502-ICSD
_database_code_ICSD 604502
_audit_creation_date 2012-02-01
_audit_update_record 2019-02-01
_chemical_name_systematic 'Indium molybdenum selenide (1/3/3)'
_chemical_formula_structural 'In Mo3 Se3'
_chemical_formula_sum 'In1 Mo3 Se3'
_chemical_name_structure_type Fe3TlTe3
_exptl_crystal_density_diffrn 7.2
_publ_section_title

;
A facile synthesis of pseudo one-monodimensional ternary molybdenum
chalcogenides M2Mo6X6 (X = Se, Te; M = Li, Na..Cs)
;
_publ_section_comment 'Cell and Type only determined'
loop_
_citation_id
_citation_journal_full
_citation_year
_citation_journal_volume
_citation_page_first
_citation_page_last
_citation_journal_id_ASTM
primary 'Materials Research Bulletin' 1984 19 915 924 MRBUAC
loop_
_publ_author_name
'Tarascon, J.M.'
'Hull, G.W.'
'DiSalvo, F.J.'
_cell_length_a 8.705
_cell_length_b 8.705
_cell_length_c 4.495
_cell_angle_alpha 90.
_cell_angle_beta 90.
_cell_angle_gamma 120.
_cell_volume 294.98
_cell_formula_units_Z 2
_symmetry_space_group_name_H-M 'P 63/m'
_symmetry_Int_Tables_number 176
loop_
_symmetry_equiv_pos_site_id
_symmetry_equiv_pos_as_xyz
1 '-x+y, -x, -z+1/2'
2 '-y, x-y, -z+1/2'
3 'x, y, -z+1/2'
4 'x-y, x, -z'
5 'y, -x+y, -z'
6 '-x, -y, -z'
7 'x-y, x, z+1/2'
8 'y, -x+y, z+1/2'
9 '-x, -y, z+1/2'
10 '-x+y, -x, z'
11 '-y, x-y, z'
12 'x, y, z'
loop_
_atom_type_symbol
_atom_type_oxidation_number
In3+ 3
Mo1+ 1
Se2- -2
loop_
_atom_site_label
_atom_site_type_symbol
_atom_site_symmetry_multiplicity
_atom_site_Wyckoff_symbol
_atom_site_fract_x
_atom_site_fract_y
_atom_site_fract_z
_atom_site_B_iso_or_equiv
_atom_site_occupancy
_atom_site_attached_hydrogens
In1 In3+ 2 c 0.3333 0.6667 0.25 . 1. 0
Mo1 Mo1+ 6 h 0.189 0.154 0.25 . 1. 0
Se1 Se2- 6 h 0.07 0.371 0.25 . 1. 0
#End of TTdata_604502-ICSD
