
#(C) 2019 by FIZ Karlsruhe - Leibniz Institute for Information Infrastructure, and the U.S. Secretary of
#Commerce on behalf of the United States.  All rights reserved.
data_604624-ICSD
_database_code_ICSD 604624
_audit_creation_date 2012-02-01
_audit_update_record 2018-08-01
_chemical_name_systematic 'Lanthanum rhodium silicide (1/1/3)'
_chemical_formula_structural 'La Rh Si3'
_chemical_formula_sum 'La1 Rh1 Si3'
_chemical_name_structure_type BaNiSn3
_exptl_crystal_density_diffrn 6.
_publ_section_title

;
Crystal structure of new superconducting materials LaIrSi3 and LaRhSi3.
Structural relation between LaRh2Si2, La2Rh3Si5 and LaRhSi3
;
_publ_section_comment 'Cell and Type only determined'
loop_
_citation_id
_citation_journal_full
_citation_year
_citation_journal_volume
_citation_page_first
_citation_page_last
_citation_journal_id_ASTM
primary 'Materials Research Bulletin' 1984 19 115 123 MRBUAC
loop_
_publ_author_name
'Lejay, P.'
'Higashi, I.'
'Chevalier, B.'
'Etourneau, J.'
'Hagenmuller, P.'
_cell_length_a 4.272
_cell_length_b 4.272
_cell_length_c 9.83
_cell_angle_alpha 90.
_cell_angle_beta 90.
_cell_angle_gamma 90.
_cell_volume 179.4
_cell_formula_units_Z 2
_symmetry_space_group_name_H-M 'I 4 m m'
_symmetry_Int_Tables_number 107
loop_
_symmetry_equiv_pos_site_id
_symmetry_equiv_pos_as_xyz
1 '-y, x, z'
2 'y, -x, z'
3 '-y, -x, z'
4 'y, x, z'
5 'x, -y, z'
6 '-x, y, z'
7 '-x, -y, z'
8 'x, y, z'
9 '-y+1/2, x+1/2, z+1/2'
10 'y+1/2, -x+1/2, z+1/2'
11 '-y+1/2, -x+1/2, z+1/2'
12 'y+1/2, x+1/2, z+1/2'
13 'x+1/2, -y+1/2, z+1/2'
14 '-x+1/2, y+1/2, z+1/2'
15 '-x+1/2, -y+1/2, z+1/2'
16 'x+1/2, y+1/2, z+1/2'
loop_
_atom_type_symbol
_atom_type_oxidation_number
La0+ 0
Rh0+ 0
Si0+ 0
loop_
_atom_site_label
_atom_site_type_symbol
_atom_site_symmetry_multiplicity
_atom_site_Wyckoff_symbol
_atom_site_fract_x
_atom_site_fract_y
_atom_site_fract_z
_atom_site_B_iso_or_equiv
_atom_site_occupancy
_atom_site_attached_hydrogens
La1 La0+ 2 a 0 0 0 . 1. 0
Rh1 Rh0+ 2 a 0 0 0.655 . 1. 0
Si1 Si0+ 2 a 0 0 0.415 . 1. 0
Si2 Si0+ 4 b 0 0.5 0.26 . 1. 0
#End of TTdata_604624-ICSD
