
#(C) 2019 by FIZ Karlsruhe - Leibniz Institute for Information Infrastructure.  All rights reserved.
data_60646-ICSD
_database_code_ICSD 60646
_audit_creation_date 1986-12-03
_audit_update_record 2008-02-01
_chemical_name_systematic 'Yttrium nickel germanide (1/1/3)'
_chemical_formula_structural 'Y Ni Ge3'
_chemical_formula_sum 'Ge3 Ni1 Y1'
_chemical_name_structure_type NiSmGe3
_exptl_crystal_density_diffrn 6.81
_publ_section_title

;
Crystal structure of the compounds R Ni Ge3 (R= Y, Nd, Sm, Gd, Tb, Dy, Ho, Er,
Tm, Lu)
;
loop_
_citation_id
_citation_journal_full
_citation_year
_citation_journal_volume
_citation_page_first
_citation_page_last
_citation_journal_id_ASTM
primary 'Dopovidi Akademii Nauk Ukrains'koi RSR' 1985 1985 36 38 DUKRA4
loop_
_publ_author_name
'Bodak, O.I.'
'Pecharskii, V.K.'
'Mruz, O.Ya.'
'Zavodnik, V.Yu.'
'Vitvitska, G.M.'
'Salamakha, P.S.'
_cell_length_a 21.548(5)
_cell_length_b 4.067(1)
_cell_length_c 4.067(1)
_cell_angle_alpha 90.
_cell_angle_beta 90.
_cell_angle_gamma 90.
_cell_volume 356.41
_cell_formula_units_Z 4
_symmetry_space_group_name_H-M 'C m m m'
_symmetry_Int_Tables_number 65
_refine_ls_R_factor_all 0.124
loop_
_symmetry_equiv_pos_site_id
_symmetry_equiv_pos_as_xyz
1 'x, -y, z'
2 '-x, y, z'
3 'x, y, -z'
4 '-x, -y, -z'
5 '-x, y, -z'
6 'x, -y, -z'
7 '-x, -y, z'
8 'x, y, z'
9 'x+1/2, -y+1/2, z'
10 '-x+1/2, y+1/2, z'
11 'x+1/2, y+1/2, -z'
12 '-x+1/2, -y+1/2, -z'
13 '-x+1/2, y+1/2, -z'
14 'x+1/2, -y+1/2, -z'
15 '-x+1/2, -y+1/2, z'
16 'x+1/2, y+1/2, z'
loop_
_atom_type_symbol
_atom_type_oxidation_number
Y0+ 0
Ni0+ 0
Ge0+ 0
loop_
_atom_site_label
_atom_site_type_symbol
_atom_site_symmetry_multiplicity
_atom_site_Wyckoff_symbol
_atom_site_fract_x
_atom_site_fract_y
_atom_site_fract_z
_atom_site_B_iso_or_equiv
_atom_site_occupancy
_atom_site_attached_hydrogens
Y1 Y0+ 4 h 0.1692(6) 0 0.5 1.2(2) 1. 0
Ni1 Ni0+ 4 g 0.3896(9) 0 0 2.4(7) 1. 0
Ge1 Ge0+ 4 g 0.2839(6) 0 0 1.8(3) 1. 0
Ge2 Ge0+ 4 h 0.4443(6) 0 0.5 0.8(2) 1. 0
Ge3 Ge0+ 4 g 0.0577(7) 0 0 0.4(2) 1. 0
#End of TTdata_60646-ICSD
