
#(C) 2019 by FIZ Karlsruhe - Leibniz Institute for Information Infrastructure, and the U.S. Secretary of
#Commerce on behalf of the United States.  All rights reserved.
data_609713-ICSD
_database_code_ICSD 609713
_audit_creation_date 2013-02-01
_audit_update_record 2018-02-01
_chemical_name_systematic 'Zirconium aluminide (1/2)'
_chemical_formula_structural 'Zr Al2'
_chemical_formula_sum 'Al2 Zr1'
_chemical_name_structure_type Laves(2H)-MgZn2
_exptl_crystal_density_diffrn 4.56
_publ_section_title
'Magnetic properties of Laves phases in the system Zr - (Fe, Co) - Al'
_publ_section_comment 'Cell and Type only determined'
loop_
_citation_id
_citation_journal_full
_citation_year
_citation_journal_volume
_citation_page_first
_citation_page_last
_citation_journal_id_ASTM
primary 'Metallofizika (Akademiya Nauk Ukrainskoi SSR, Institut Metallofiziki)'
1974 52 58 61 MFIZAC
loop_
_publ_author_name
'Kuz''menko, P.P.'
'Suprunenko, P.A.'
'Markiv, V.Ya.'
'Bucik, T.M.'
_cell_length_a 5.282
_cell_length_b 5.282
_cell_length_c 8.748
_cell_angle_alpha 90.
_cell_angle_beta 90.
_cell_angle_gamma 120.
_cell_volume 211.37
_cell_formula_units_Z 4
_symmetry_space_group_name_H-M 'P 63/m m c'
_symmetry_Int_Tables_number 194
loop_
_symmetry_equiv_pos_site_id
_symmetry_equiv_pos_as_xyz
1 'x, x-y, -z+1/2'
2 '-x+y, y, -z+1/2'
3 '-y, -x, -z+1/2'
4 '-x+y, -x, -z+1/2'
5 '-y, x-y, -z+1/2'
6 'x, y, -z+1/2'
7 '-x, -x+y, z+1/2'
8 'x-y, -y, z+1/2'
9 'y, x, z+1/2'
10 'x-y, x, z+1/2'
11 'y, -x+y, z+1/2'
12 '-x, -y, z+1/2'
13 '-x, -x+y, -z'
14 'x-y, -y, -z'
15 'y, x, -z'
16 'x-y, x, -z'
17 'y, -x+y, -z'
18 '-x, -y, -z'
19 'x, x-y, z'
20 '-x+y, y, z'
21 '-y, -x, z'
22 '-x+y, -x, z'
23 '-y, x-y, z'
24 'x, y, z'
loop_
_atom_type_symbol
_atom_type_oxidation_number
Zr0+ 0
Al0+ 0
loop_
_atom_site_label
_atom_site_type_symbol
_atom_site_symmetry_multiplicity
_atom_site_Wyckoff_symbol
_atom_site_fract_x
_atom_site_fract_y
_atom_site_fract_z
_atom_site_B_iso_or_equiv
_atom_site_occupancy
_atom_site_attached_hydrogens
Zr1 Zr0+ 4 f 0.3333 0.6667 0.063 . 1. 0
Al1 Al0+ 2 a 0 0 0 . 1. 0
Al2 Al0+ 6 h 0.83 0.66 0.25 . 1. 0
#End of TTdata_609713-ICSD
