
#(C) 2019 by FIZ Karlsruhe - Leibniz Institute for Information Infrastructure, and the U.S. Secretary of
#Commerce on behalf of the United States.  All rights reserved.
data_611293-ICSD
_database_code_ICSD 611293
_audit_creation_date 2010-02-01
_chemical_name_systematic 'Ruthenium(III) arsenide'
_chemical_formula_structural 'Ru As'
_chemical_formula_sum 'As1 Ru1'
_chemical_name_structure_type MnP
_exptl_crystal_density_diffrn 10.06
_publ_section_title
'Arsenides of the transition metals IV. A note on the platinum metal arsenides'
_publ_section_comment 'Cell and Type only determined'
loop_
_citation_id
_citation_journal_full
_citation_year
_citation_journal_volume
_citation_page_first
_citation_page_last
_citation_journal_id_ASTM
primary 'Canadian Journal of Chemistry' 1961 39 955 957 CJCHAG
loop_
_publ_author_name
'Heyding, R.D.'
'Calvert, L.D.'
_cell_length_a 5.70(1)
_cell_length_b 3.25(1)
_cell_length_c 6.27(1)
_cell_angle_alpha 90.
_cell_angle_beta 90.
_cell_angle_gamma 90.
_cell_volume 116.15
_cell_formula_units_Z 4
_symmetry_space_group_name_H-M 'P n m a'
_symmetry_Int_Tables_number 62
loop_
_symmetry_equiv_pos_site_id
_symmetry_equiv_pos_as_xyz
1 'x+1/2, y, -z+1/2'
2 'x, -y+1/2, z'
3 '-x+1/2, y+1/2, z+1/2'
4 '-x, -y, -z'
5 '-x+1/2, -y, z+1/2'
6 '-x, y+1/2, -z'
7 'x+1/2, -y+1/2, -z+1/2'
8 'x, y, z'
loop_
_atom_type_symbol
_atom_type_oxidation_number
Ru3+ 3
As3- -3
loop_
_atom_site_label
_atom_site_type_symbol
_atom_site_symmetry_multiplicity
_atom_site_Wyckoff_symbol
_atom_site_fract_x
_atom_site_fract_y
_atom_site_fract_z
_atom_site_B_iso_or_equiv
_atom_site_occupancy
_atom_site_attached_hydrogens
Ru1 Ru3+ 4 c 0.002 0.25 0.2 . 1. 0
As1 As3- 4 c 0.199 0.25 0.586 . 1. 0
#End of TTdata_611293-ICSD
