
#(C) 2019 by FIZ Karlsruhe - Leibniz Institute for Information Infrastructure.  All rights reserved.
data_82072-ICSD
_database_code_ICSD 82072
_audit_creation_date 1999-11-30
_chemical_name_systematic 'Phosphorus tungsten oxide (4/14/50)'
_chemical_formula_structural '(P O2)4 (W O3)14'
_chemical_formula_sum 'O50 P4 W14'
_exptl_crystal_density_diffrn 6.28
_cell_measurement_temperature 294.
_publ_section_title

;
Structural study of P4 W14 O50, a new odd member in the series (P O2)4 (W
O3)2m
;
loop_
_citation_id
_citation_journal_full
_citation_year
_citation_journal_volume
_citation_page_first
_citation_page_last
_citation_journal_id_ASTM
primary 'Journal of Solid State Chemistry' 1996 122 281 290 JSSCBI
loop_
_publ_author_name
'Roussel, P.'
'Labbe, Ph.'
'Groult, D.'
'Domenges, B.'
'Leligny, H.'
'Grebille, D.'
_cell_length_a 5.291(1)
_cell_length_b 6.557(2)
_cell_length_c 26.6540(80)
_cell_angle_alpha 90.
_cell_angle_beta 90.19
_cell_angle_gamma 90.
_cell_volume 924.7
_cell_formula_units_Z 1
_symmetry_space_group_name_H-M 'P 1 21/n 1'
_symmetry_Int_Tables_number 14
_refine_ls_R_factor_all 0.057
loop_
_symmetry_equiv_pos_site_id
_symmetry_equiv_pos_as_xyz
1 '-x+1/2, y+1/2, -z+1/2'
2 '-x, -y, -z'
3 'x+1/2, -y+1/2, z+1/2'
4 'x, y, z'
loop_
_atom_type_symbol
_atom_type_oxidation_number
W6+ 6
P4+ 4
O2- -2
loop_
_atom_site_label
_atom_site_type_symbol
_atom_site_symmetry_multiplicity
_atom_site_Wyckoff_symbol
_atom_site_fract_x
_atom_site_fract_y
_atom_site_fract_z
_atom_site_B_iso_or_equiv
_atom_site_occupancy
_atom_site_attached_hydrogens
W1 W6+ 2 c 0 0.5 0 . 1. 0
W2 W6+ 4 e 0.0075(4) 0.1559(1) 0.11356(2) . 1. 0
W3 W6+ 4 e -.0037(4) -.0076(1) 0.32965(2) . 1. 0
W4 W6+ 4 e 0.0005(4) 0.3276(1) 0.44405(2) . 1. 0
P1 P4+ 4 e 0.482(1) 0.3013(7) 0.2911(1) 0.18(5) 1. 0
O1 O2- 2 d 0.5 0 0 0.9(2) 1. 0
O2 O2- 4 e 0.495(7) 0.167(2) 0.5600(5) 0.7(2) 1. 0
O3 O2- 4 e 0.017(5) 0.155(3) 0.3849(5) 0.9(2) 1. 0
O4 O2- 4 e 0.017(6) -.006(3) 0.1768(5) 0.6(2) 1. 0
O5 O2- 4 e 0.529(4) 0.362(2) 0.2368(5) 0.7(2) 1. 0
O6 O2- 4 e 0.285(4) 0.190(3) 0.4681(7) 0.7(2) 1. 0
O7 O2- 4 e 0.785(4) 0.145(3) 0.4754(7) 0.7(2) 1. 0
O8 O2- 4 e 0.283(4) 0.017(3) 0.0927(6) 0.6(2) 1. 0
O9 O2- 4 e 0.786(4) -.023(3) 0.0834(6) 0.8(2) 1. 0
O10 O2- 4 e 0.231(4) 0.347(3) 0.1512(7) 0.8(3) 1. 0
O11 O2- 4 e 0.725(4) 0.310(4) 0.1443(8) 0.9(3) 1. 0
O12 O2- 4 e 0.229(4) 0.201(4) 0.2965(7) 0.9(3) 1. 0
O13 O2- 4 e 0.701(5) 0.158(4) 0.3050(8) 1.2(3) 1. 0
loop_
_atom_site_aniso_label
_atom_site_aniso_type_symbol
_atom_site_aniso_U_11
_atom_site_aniso_U_22
_atom_site_aniso_U_33
_atom_site_aniso_U_12
_atom_site_aniso_U_13
_atom_site_aniso_U_23
W1 W6+ 0.0102(4) 0.0048(2) 0.0054(4) -.0016(5) -.0003(4) 0.0007(1)
W2 W6+ 0.0075(3) 0.0026(2) 0.0047(4) -.0002(3) 0.0002(3) 0.00057(9)
W3 W6+ 0.0065(3) 0.0020(2) 0.0032(4) 0.0008(4) 0.0005(3) -.0009(9)
W4 W6+ 0.0092(3) 0.0044(2) 0.0050(4) 0.0005(4) -.0010(3) -.00084(9)
#End of TTdata_82072-ICSD