
#(C) 2019 by FIZ Karlsruhe - Leibniz Institute for Information Infrastructure.  All rights reserved.
data_82529-ICSD
_database_code_ICSD 82529
_audit_creation_date 1997-11-10
_chemical_name_systematic 'Barium tin antimonide (2/3/6)'
_chemical_formula_structural 'Ba2 Sn3 Sb6'
_chemical_formula_sum 'Ba2 Sb6 Sn3'
_exptl_crystal_density_diffrn 6.28
_cell_measurement_temperature 223.
_publ_section_title

;
Synthesis and structure of Ba2 Sn3 Sb6, a Zintl phase containing channels and
chains
;
loop_
_citation_id
_citation_journal_full
_citation_year
_citation_journal_volume
_citation_page_first
_citation_page_last
_citation_journal_id_ASTM
primary 'Inorganic Chemistry' 1996 35 6959 6963 INOCAJ
loop_
_publ_author_name
'Lam, R.'
'Mar, A.'
_cell_length_a 13.351(1)
_cell_length_b 4.4100(5)
_cell_length_c 24.4490(30)
_cell_angle_alpha 90.
_cell_angle_beta 90.
_cell_angle_gamma 90.
_cell_volume 1439.51
_cell_formula_units_Z 4
_symmetry_space_group_name_H-M 'P n m a'
_symmetry_Int_Tables_number 62
_refine_ls_R_factor_all 0.056
loop_
_symmetry_equiv_pos_site_id
_symmetry_equiv_pos_as_xyz
1 'x+1/2, y, -z+1/2'
2 'x, -y+1/2, z'
3 '-x+1/2, y+1/2, z+1/2'
4 '-x, -y, -z'
5 '-x+1/2, -y, z+1/2'
6 '-x, y+1/2, -z'
7 'x+1/2, -y+1/2, -z+1/2'
8 'x, y, z'
loop_
_atom_type_symbol
_atom_type_oxidation_number
Ba2+ 2
Sn2+ 2
Sn4+ 4
Sn2+ 2
Sb2- -2
loop_
_atom_site_label
_atom_site_type_symbol
_atom_site_symmetry_multiplicity
_atom_site_Wyckoff_symbol
_atom_site_fract_x
_atom_site_fract_y
_atom_site_fract_z
_atom_site_B_iso_or_equiv
_atom_site_occupancy
_atom_site_attached_hydrogens
Ba1 Ba2+ 4 c 0.1312(1) 0.25 0.10924(8) 0.0104(5) 1. 0
Ba2 Ba2+ 4 c 0.0484(2) 0.25 0.42043(8) 0.0113(5) 1. 0
Sn1 Sn2+ 4 c 0.0417(2) 0.25 0.24939(9) 0.0104(5) 1. 0
Sn2 Sn4+ 4 c 0.1948(2) 0.25 0.76595(9) 0.0109(5) 1. 0
Sn3 Sn2+ 4 c 0.3205(2) 0.25 0.40239(10) 0.0135(5) 1. 0
Sb1 Sb2- 4 c 0.1609(2) 0.25 0.57758(9) 0.0123(5) 1. 0
Sb2 Sb2- 4 c 0.3017(2) 0.25 0.00171(9) 0.0132(5) 1. 0
Sb3 Sb2- 4 c 0.3487(2) 0.25 0.19674(9) 0.0120(5) 1. 0
Sb4 Sb2- 4 c 0.3838(2) 0.25 0.81486(9) 0.0119(5) 1. 0
Sb5 Sb2- 4 c 0.4297(2) 0.25 0.50378(9) 0.0124(5) 1. 0
Sb6 Sb2- 4 c 0.5653(2) 0.25 0.64425(9) 0.0116(5) 1. 0
#End of TTdata_82529-ICSD