
#(C) 2019 by FIZ Karlsruhe - Leibniz Institute for Information Infrastructure.  All rights reserved.
data_83074-ICSD
_database_code_ICSD 83074
_audit_creation_date 1998-06-26
_chemical_name_systematic 'Neodymium barium copper oxide (1/2/3/6)'
_chemical_formula_structural 'Nd Ba2 Cu3 O6'
_chemical_formula_sum 'Ba2 Cu3 Nd1 O6'
_chemical_name_structure_type YBa2Cu3O7-x(tet)
_exptl_crystal_density_diffrn 6.49
_publ_section_title

;
Fabrication of Nd Ba2 Cu3 O7-d single crystals by the top-seeded
solution-growth method in 1%, 21% and 100% oxygen partial pressure atmosphere
;
loop_
_citation_id
_citation_journal_full
_citation_year
_citation_journal_volume
_citation_page_first
_citation_page_last
_citation_journal_id_ASTM
primary
'Physica C: Superconductivity and Ist Application (Amsterdam, Netherlands)' 1996 260 297 304 PHYCE6
loop_
_publ_author_name
'Nakamura, M.'
'Kutami, H.'
'Shiohara, Y.'
_cell_length_a 3.9065(7)
_cell_length_b 3.9065(7)
_cell_length_c 11.823(2)
_cell_angle_alpha 90.
_cell_angle_beta 90.
_cell_angle_gamma 90.
_cell_volume 180.43
_cell_formula_units_Z 1
_symmetry_space_group_name_H-M 'P 4/m m m'
_symmetry_Int_Tables_number 123
_refine_ls_R_factor_all 0.051
loop_
_symmetry_equiv_pos_site_id
_symmetry_equiv_pos_as_xyz
1 'y, x, -z'
2 '-y, -x, -z'
3 '-y, x, -z'
4 'y, -x, -z'
5 '-x, y, -z'
6 'x, -y, -z'
7 'x, y, -z'
8 '-x, -y, -z'
9 '-y, -x, z'
10 'y, x, z'
11 'y, -x, z'
12 '-y, x, z'
13 'x, -y, z'
14 '-x, y, z'
15 '-x, -y, z'
16 'x, y, z'
loop_
_atom_type_symbol
_atom_type_oxidation_number
Nd3+ 3
Ba2+ 2
Cu1+ 1.667
O2- -2
loop_
_atom_site_label
_atom_site_type_symbol
_atom_site_symmetry_multiplicity
_atom_site_Wyckoff_symbol
_atom_site_fract_x
_atom_site_fract_y
_atom_site_fract_z
_atom_site_B_iso_or_equiv
_atom_site_occupancy
_atom_site_attached_hydrogens
Nd1 Nd3+ 1 d 0.5 0.5 0.5 . 1. 0
Ba1 Ba2+ 2 h 0.5 0.5 0.19036(9) . 1. 0
Cu1 Cu1+ 1 a 0 0 0 . 1. 0
Cu2 Cu1+ 2 g 0 0 0.3537(2) . 1. 0
O1 O2- 2 g 0 0 0.152(2) . 1. 0
O2 O2- 4 i 0 0.5 0.3724(7) . 1. 0
loop_
_atom_site_aniso_label
_atom_site_aniso_type_symbol
_atom_site_aniso_U_11
_atom_site_aniso_U_22
_atom_site_aniso_U_33
_atom_site_aniso_U_12
_atom_site_aniso_U_13
_atom_site_aniso_U_23
Nd1 Nd3+ 0.0038(2) 0.0038(2) 0.0042(4) 0 0 0
Ba1 Ba2+ 0.0103(3) 0.0103(3) 0.0066(4) 0 0 0
Cu1 Cu1+ 0.0135(8) 0.0135(8) 0.004(1) 0 0 0
Cu2 Cu1+ 0.0038(3) 0.0038(3) 0.0070(8) 0 0 0
O1 O2- 0.047(8) 0.047(8) 0.010(6) 0 0 0
O2 O2- 0.007(2) 0.002(2) 0.009(3) 0 0 0
#End of TTdata_83074-ICSD