
#(C) 2019 by FIZ Karlsruhe - Leibniz Institute for Information Infrastructure.  All rights reserved.
data_86427-ICSD
_database_code_ICSD 86427
_audit_creation_date 1999-11-30
_chemical_name_systematic 'Thallium(III) distrontium copper(III) oxide'
_chemical_formula_structural 'Tl Sr2 Cu O5'
_chemical_formula_sum 'Cu1 O5 Sr2 Tl1'
_exptl_crystal_density_diffrn 6.96
_publ_section_title
'Synthesis and characterization of orthorhombic Tl Sr2 Cu O5'
loop_
_citation_id
_citation_journal_full
_citation_year
_citation_journal_volume
_citation_page_first
_citation_page_last
_citation_journal_id_ASTM
primary 'Journal of Solid State Chemistry' 1991 93 250 255 JSSCBI
loop_
_publ_author_name
'Ganguli, A.K.'
'Subramanian, M.A.'
_cell_length_a 3.661(2)
_cell_length_b 3.793(1)
_cell_length_c 8.99(3)
_cell_angle_alpha 90.
_cell_angle_beta 90.
_cell_angle_gamma 90.
_cell_volume 124.84
_cell_formula_units_Z 1
_symmetry_space_group_name_H-M 'P m m m'
_symmetry_Int_Tables_number 47
loop_
_symmetry_equiv_pos_site_id
_symmetry_equiv_pos_as_xyz
1 'x, -y, z'
2 '-x, y, z'
3 'x, y, -z'
4 '-x, -y, -z'
5 '-x, y, -z'
6 'x, -y, -z'
7 '-x, -y, z'
8 'x, y, z'
loop_
_atom_type_symbol
_atom_type_oxidation_number
Tl3+ 3
Sr2+ 2
Cu3+ 3
O2- -2
loop_
_atom_site_label
_atom_site_type_symbol
_atom_site_symmetry_multiplicity
_atom_site_Wyckoff_symbol
_atom_site_fract_x
_atom_site_fract_y
_atom_site_fract_z
_atom_site_B_iso_or_equiv
_atom_site_occupancy
_atom_site_attached_hydrogens
Tl1 Tl3+ 1 a 0 0 0 1.8 1. 0
Sr1 Sr2+ 2 t 0.5 0.5 0.295 1.6 1. 0
Cu1 Cu3+ 1 c 0 0 0.5 1.2 1. 0
O1 O2- 2 q 0 0 0.2236 1.6 1. 0
O2 O2- 1 g 0 0.5 0.5 1.2 1. 0
O3 O2- 1 f 0.5 0.5 0 3.2 1. 0
O4 O2- 1 d 0.5 0 0.5 1.2 1. 0
#End of TTdata_86427-ICSD