
#(C) 2019 by FIZ Karlsruhe - Leibniz Institute for Information Infrastructure.  All rights reserved.
data_92576-ICSD
_database_code_ICSD 92576
_audit_creation_date 2003-04-01
_audit_update_record 2012-02-01
_chemical_name_systematic 'Barium germanide (6/25)'
_chemical_formula_structural 'Ba6 Ge25'
_chemical_formula_sum 'Ba6 Ge25'
_chemical_name_structure_type K6Sn25
_exptl_crystal_density_diffrn 5.68
_publ_section_title
'Crystal structure of hexabarium pentacosagermanide, Ba6 Ge25'
loop_
_citation_id
_citation_journal_full
_citation_year
_citation_journal_volume
_citation_page_first
_citation_page_last
_citation_journal_id_ASTM
primary 'Zeitschrift fuer Kristallographie - New Crystal Structures' 2000 215
207 208 ZKNSFT
loop_
_publ_author_name
'Carrillo Cabrera, W.'
'Curda, J.'
'von Schnering, H.G.'
'Paschen, S.'
'Grin', Yu. (Hrin', Yu.'
' Grin, Yu.'
' Hrin, Yu.)'
_cell_length_a 14.5564(2)
_cell_length_b 14.5564(2)
_cell_length_c 14.5564(2)
_cell_angle_alpha 90
_cell_angle_beta 90
_cell_angle_gamma 90
_cell_volume 3084.34
_cell_formula_units_Z 4
_symmetry_space_group_name_H-M 'P 41 3 2'
_symmetry_Int_Tables_number 213
_refine_ls_R_factor_all 0.089
loop_
_symmetry_equiv_pos_site_id
_symmetry_equiv_pos_as_xyz
1 '-z+1/4, y+3/4, x+1/4'
2 'z+1/4, -y+1/4, x+3/4'
3 'z+3/4, y+1/4, -x+1/4'
4 '-z+3/4, -y+3/4, -x+3/4'
5 'y+3/4, x+1/4, -z+1/4'
6 '-y+1/4, x+3/4, z+1/4'
7 'y+1/4, -x+1/4, z+3/4'
8 '-y+3/4, -x+3/4, -z+3/4'
9 'x+1/4, -z+1/4, y+3/4'
10 'x+3/4, z+1/4, -y+1/4'
11 '-x+1/4, z+3/4, y+1/4'
12 '-x+3/4, -z+3/4, -y+3/4'
13 'z+1/2, -x+1/2, -y'
14 '-z+1/2, -x, y+1/2'
15 '-z, x+1/2, -y+1/2'
16 'z, x, y'
17 '-y, z+1/2, -x+1/2'
18 'y+1/2, -z+1/2, -x'
19 '-y+1/2, -z, x+1/2'
20 'y, z, x'
21 '-x+1/2, -y, z+1/2'
22 '-x, y+1/2, -z+1/2'
23 'x+1/2, -y+1/2, -z'
24 'x, y, z'
loop_
_atom_type_symbol
_atom_type_oxidation_number
Ba0+ 0
Ge0+ 0
loop_
_atom_site_label
_atom_site_type_symbol
_atom_site_symmetry_multiplicity
_atom_site_Wyckoff_symbol
_atom_site_fract_x
_atom_site_fract_y
_atom_site_fract_z
_atom_site_B_iso_or_equiv
_atom_site_occupancy
_atom_site_attached_hydrogens
Ba1 Ba0+ 8 c 0.0607(2) 0.0607(2) 0.0607(2) . 1. 0
Ba2 Ba0+ 12 d 0.125 0.1887(3) 0.4387(3) . 1. 0
Ba3 Ba0+ 4 a 0.375 0.375 0.375 . 1. 0
Ge1 Ge0+ 24 e 0.2929(4) 0.9538(4) 0.7501(4) . 1. 0
Ge2 Ge0+ 8 c 0.9251(4) 0.9251(4) 0.9251(4) . 1. 0
Ge3 Ge0+ 8 c 0.2182(5) 0.2182(5) 0.2182(5) . 1. 0
Ge4 Ge0+ 12 d 0.125 0.8309(4) 0.0809(4) . 1. 0
Ge5 Ge0+ 24 e 0.9166(4) 0.0847(4) 0.8532(4) . 1. 0
Ge6 Ge0+ 24 e 0.1853(4) 0.9899(3) 0.8767(4) . 1. 0
loop_
_atom_site_aniso_label
_atom_site_aniso_type_symbol
_atom_site_aniso_U_11
_atom_site_aniso_U_22
_atom_site_aniso_U_33
_atom_site_aniso_U_12
_atom_site_aniso_U_13
_atom_site_aniso_U_23
Ba1 Ba0+ 0.017(1) 0.017(1) 0.017(1) 0.002(1) 0.002(1) 0.002(1)
Ba2 Ba0+ 0.107(6) 0.031(2) 0.031(2) 0.276(3) 0.005(3) -0.005(3)
Ba3 Ba0+ 0.025(2) 0.025(2) 0.025(2) 0.010(2) 0.010(2) 0.010(2)
Ge1 Ge0+ 0.016(3) 0.015(2) 0.017(3) 0.002(2) 0.003(2) 0.001(2)
Ge2 Ge0+ 0.015(2) 0.015(2) 0.015(2) 0.002(2) 0.002(2) 0.002(2)
Ge3 Ge0+ 0.027(2) 0.027(2) 0.027(2) 0.005(3) 0.005(3) 0.005(3)
Ge4 Ge0+ 0.010(3) 0.017(2) 0.017(2) 0.156(2) -0.004(2) 0.004(2)
Ge5 Ge0+ 0.015(3) 0.020(3) 0.015(2) 0.001(2) 0.001(2) 0.000(2)
Ge6 Ge0+ 0.015(2) 0.013(2) 0.017(3) -0.004(2) -0.003(2) 0.003(2)
#End of TTdata_92576-ICSD